# Converted from POSCAR to lammps format

5184 atoms
1 atom types

0.000000   59.736399   xlo xhi
0.000000   63.360000   ylo yhi
0.000000   14.934100   zlo zhi

  0.000000    0.000000    0.000000   xy xz yz

Atoms

   1  1      0.000000 0.000000 2.491386
   2  1      0.000000 0.000000 4.980402
   3  1      0.000000 0.000000 7.469419
   4  1      0.000000 0.000000 9.958436
   5  1      0.000000 0.000000 12.447452
   6  1      0.000000 0.000000 0.002369
   7  1      0.000000 3.520000 2.473448
   8  1      0.000000 3.520000 4.962464
   9  1      0.000000 3.520000 7.451481
  10  1      0.000000 3.520000 9.940498
  11  1      0.000000 3.520000 12.429514
  12  1      0.000000 3.520000 14.918531
  13  1      0.000000 7.040000 2.448649
  14  1      0.000000 7.040000 4.937666
  15  1      0.000000 7.040000 7.426683
  16  1      0.000000 7.040000 9.915699
  17  1      0.000000 7.040000 12.404716
  18  1      0.000000 7.040000 14.893732
  19  1      0.000000 10.560000 2.413643
  20  1      0.000000 10.560000 4.902660
  21  1      0.000000 10.560000 7.391676
  22  1      0.000000 10.560000 9.880693
  23  1      0.000000 10.560000 12.369709
  24  1      0.000000 10.560000 14.858726
  25  1      0.000000 14.080000 2.368710
  26  1      0.000000 14.080000 4.857727
  27  1      0.000000 14.080000 7.346743
  28  1      0.000000 14.080000 9.835760
  29  1      0.000000 14.080000 12.324777
  30  1      0.000000 14.080000 14.813793
  31  1      0.000000 17.600000 2.319152
  32  1      0.000000 17.600000 4.808169
  33  1      0.000000 17.600000 7.297185
  34  1      0.000000 17.600000 9.786202
  35  1      0.000000 17.600000 12.275219
  36  1      0.000000 17.600000 14.764235
  37  1      0.000000 21.120000 2.272801
  38  1      0.000000 21.120000 4.761817
  39  1      0.000000 21.120000 7.250834
  40  1      0.000000 21.120000 9.739851
  41  1      0.000000 21.120000 12.228867
  42  1      0.000000 21.120000 14.717884
  43  1      0.000000 24.640000 2.234806
  44  1      0.000000 24.640000 4.723822
  45  1      0.000000 24.640000 7.212839
  46  1      0.000000 24.640000 9.701856
  47  1      0.000000 24.640000 12.190872
  48  1      0.000000 24.640000 14.679889
  49  1      0.000000 28.160000 2.205192
  50  1      0.000000 28.160000 4.694209
  51  1      0.000000 28.160000 7.183225
  52  1      0.000000 28.160000 9.672242
  53  1      0.000000 28.160000 12.161259
  54  1      0.000000 28.160000 14.650275
  55  1      0.000000 31.680000 4.668946
  56  1      0.000000 31.680000 7.157962
  57  1      0.000000 31.680000 9.646979
  58  1      0.000000 31.680000 12.135996
  59  1      0.000000 31.680000 14.625012
  60  1      0.000000 31.680000 2.179929
  61  1      0.000000 35.200000 4.643859
  62  1      0.000000 35.200000 7.132875
  63  1      0.000000 35.200000 9.621892
  64  1      0.000000 35.200000 12.110908
  65  1      0.000000 35.200000 14.599925
  66  1      0.000000 35.200000 2.154842
  67  1      0.000000 38.720000 4.614287
  68  1      0.000000 38.720000 7.103304
  69  1      0.000000 38.720000 9.592320
  70  1      0.000000 38.720000 12.081337
  71  1      0.000000 38.720000 14.570354
  72  1      0.000000 38.720000 2.125270
  73  1      0.000000 42.240000 4.578323
  74  1      0.000000 42.240000 7.067340
  75  1      0.000000 42.240000 9.556356
  76  1      0.000000 42.240000 12.045373
  77  1      0.000000 42.240000 14.534390
  78  1      0.000000 42.240000 2.089307
  79  1      0.000000 45.760000 4.537861
  80  1      0.000000 45.760000 7.026877
  81  1      0.000000 45.760000 9.515894
  82  1      0.000000 45.760000 12.004911
  83  1      0.000000 45.760000 14.493927
  84  1      0.000000 45.760000 2.048844
  85  1      0.000000 49.280000 4.498085
  86  1      0.000000 49.280000 6.987101
  87  1      0.000000 49.280000 9.476118
  88  1      0.000000 49.280000 11.965135
  89  1      0.000000 49.280000 14.454151
  90  1      0.000000 49.280000 2.009068
  91  1      0.000000 52.800000 4.464265
  92  1      0.000000 52.800000 6.953281
  93  1      0.000000 52.800000 9.442298
  94  1      0.000000 52.800000 11.931315
  95  1      0.000000 52.800000 14.420331
  96  1      0.000000 52.800000 1.975248
  97  1      0.000000 56.320000 4.438558
  98  1      0.000000 56.320000 6.927575
  99  1      0.000000 56.320000 9.416591
 100  1      0.000000 56.320000 11.905608
 101  1      0.000000 56.320000 14.394625
 102  1      0.000000 56.320000 1.949541
 103  1      0.000000 59.840000 4.419469
 104  1      0.000000 59.840000 6.908486
 105  1      0.000000 59.840000 9.397502
 106  1      0.000000 59.840000 11.886519
 107  1      0.000000 59.840000 14.375536
 108  1      0.000000 59.840000 1.930452
 109  1      4.978033 0.000000 2.530549
 110  1      4.978033 0.000000 5.019566
 111  1      4.978033 0.000000 7.508582
 112  1      4.978033 0.000000 9.997599
 113  1      4.978033 0.000000 12.486616
 114  1      4.978033 0.000000 0.041532
 115  1      4.978033 3.520000 2.514748
 116  1      4.978033 3.520000 5.003764
 117  1      4.978033 3.520000 7.492781
 118  1      4.978033 3.520000 9.981798
 119  1      4.978033 3.520000 12.470814
 120  1      4.978033 3.520000 0.025731
 121  1      4.978033 7.040000 2.483437
 122  1      4.978033 7.040000 4.972454
 123  1      4.978033 7.040000 7.461471
 124  1      4.978033 7.040000 9.950487
 125  1      4.978033 7.040000 12.439504
 126  1      4.978033 7.040000 14.928521
 127  1      4.978033 10.560000 2.427318
 128  1      4.978033 10.560000 4.916335
 129  1      4.978033 10.560000 7.405351
 130  1      4.978033 10.560000 9.894368
 131  1      4.978033 10.560000 12.383385
 132  1      4.978033 10.560000 14.872401
 133  1      4.978033 14.080000 2.342166
 134  1      4.978033 14.080000 4.831182
 135  1      4.978033 14.080000 7.320199
 136  1      4.978033 14.080000 9.809216
 137  1      4.978033 14.080000 12.298232
 138  1      4.978033 14.080000 14.787249
 139  1      4.978033 17.600000 2.242310
 140  1      4.978033 17.600000 4.731327
 141  1      4.978033 17.600000 7.220344
 142  1      4.978033 17.600000 9.709360
 143  1      4.978033 17.600000 12.198377
 144  1      4.978033 17.600000 14.687394
 145  1      4.978033 21.120000 2.156162
 146  1      4.978033 21.120000 4.645179
 147  1      4.978033 21.120000 7.134195
 148  1      4.978033 21.120000 9.623212
 149  1      4.978033 21.120000 12.112228
 150  1      4.978033 21.120000 14.601245
 151  1      4.978033 24.640000 14.541204
 152  1      4.978033 24.640000 2.096121
 153  1      4.978033 24.640000 4.585138
 154  1      4.978033 24.640000 7.074155
 155  1      4.978033 24.640000 9.563171
 156  1      4.978033 24.640000 12.052188
 157  1      4.978033 28.160000 4.552191
 158  1      4.978033 28.160000 7.041207
 159  1      4.978033 28.160000 9.530224
 160  1      4.978033 28.160000 12.019241
 161  1      4.978033 28.160000 14.508257
 162  1      4.978033 28.160000 2.063174
 163  1      4.978033 31.680000 4.532141
 164  1      4.978033 31.680000 7.021157
 165  1      4.978033 31.680000 9.510174
 166  1      4.978033 31.680000 11.999191
 167  1      4.978033 31.680000 14.488207
 168  1      4.978033 31.680000 2.043124
 169  1      4.978033 35.200000 4.518913
 170  1      4.978033 35.200000 7.007929
 171  1      4.978033 35.200000 9.496946
 172  1      4.978033 35.200000 11.985963
 173  1      4.978033 35.200000 14.474979
 174  1      4.978033 35.200000 2.029896
 175  1      4.978033 38.720000 4.507687
 176  1      4.978033 38.720000 6.996704
 177  1      4.978033 38.720000 9.485721
 178  1      4.978033 38.720000 11.974737
 179  1      4.978033 38.720000 14.463754
 180  1      4.978033 38.720000 2.018671
 181  1      4.978033 42.240000 4.496159
 182  1      4.978033 42.240000 6.985176
 183  1      4.978033 42.240000 9.474193
 184  1      4.978033 42.240000 11.963209
 185  1      4.978033 42.240000 14.452226
 186  1      4.978033 42.240000 2.007143
 187  1      4.978033 45.760000 4.484149
 188  1      4.978033 45.760000 6.973166
 189  1      4.978033 45.760000 9.462182
 190  1      4.978033 45.760000 11.951199
 191  1      4.978033 45.760000 14.440216
 192  1      4.978033 45.760000 1.995132
 193  1      4.978033 49.280000 4.472829
 194  1      4.978033 49.280000 6.961845
 195  1      4.978033 49.280000 9.450862
 196  1      4.978033 49.280000 11.939879
 197  1      4.978033 49.280000 14.428895
 198  1      4.978033 49.280000 1.983812
 199  1      4.978033 52.800000 4.463501
 200  1      4.978033 52.800000 6.952517
 201  1      4.978033 52.800000 9.441534
 202  1      4.978033 52.800000 11.930551
 203  1      4.978033 52.800000 14.419567
 204  1      4.978033 52.800000 1.974484
 205  1      4.978033 56.320000 4.456450
 206  1      4.978033 56.320000 6.945467
 207  1      4.978033 56.320000 9.434484
 208  1      4.978033 56.320000 11.923500
 209  1      4.978033 56.320000 14.412517
 210  1      4.978033 56.320000 1.967434
 211  1      4.978033 59.840000 4.450276
 212  1      4.978033 59.840000 6.939293
 213  1      4.978033 59.840000 9.428309
 214  1      4.978033 59.840000 11.917326
 215  1      4.978033 59.840000 14.406343
 216  1      4.978033 59.840000 1.961260
 217  1      9.956067 0.000000 2.583940
 218  1      9.956067 0.000000 5.072957
 219  1      9.956067 0.000000 7.561974
 220  1      9.956067 0.000000 10.050990
 221  1      9.956067 0.000000 12.540007
 222  1      9.956067 0.000000 0.094924
 223  1      9.956067 3.520000 2.585803
 224  1      9.956067 3.520000 5.074819
 225  1      9.956067 3.520000 7.563836
 226  1      9.956067 3.520000 10.052852
 227  1      9.956067 3.520000 12.541869
 228  1      9.956067 3.520000 0.096786
 229  1      9.956067 7.040000 2.569019
 230  1      9.956067 7.040000 5.058036
 231  1      9.956067 7.040000 7.547052
 232  1      9.956067 7.040000 10.036069
 233  1      9.956067 7.040000 12.525086
 234  1      9.956067 7.040000 0.080003
 235  1      9.956067 10.560000 2.509633
 236  1      9.956067 10.560000 4.998650
 237  1      9.956067 10.560000 7.487667
 238  1      9.956067 10.560000 9.976683
 239  1      9.956067 10.560000 12.465700
 240  1      9.956067 10.560000 0.020617
 241  1      9.956067 14.080000 2.358020
 242  1      9.956067 14.080000 4.847036
 243  1      9.956067 14.080000 7.336053
 244  1      9.956067 14.080000 9.825070
 245  1      9.956067 14.080000 12.314086
 246  1      9.956067 14.080000 14.803103
 247  1      9.956067 17.600000 2.125042
 248  1      9.956067 17.600000 4.614058
 249  1      9.956067 17.600000 7.103075
 250  1      9.956067 17.600000 9.592092
 251  1      9.956067 17.600000 12.081108
 252  1      9.956067 17.600000 14.570125
 253  1      9.956067 21.120000 4.461604
 254  1      9.956067 21.120000 6.950620
 255  1      9.956067 21.120000 9.439637
 256  1      9.956067 21.120000 11.928653
 257  1      9.956067 21.120000 14.417670
 258  1      9.956067 21.120000 1.972587
 259  1      9.956067 24.640000 4.401281
 260  1      9.956067 24.640000 6.890298
 261  1      9.956067 24.640000 9.379315
 262  1      9.956067 24.640000 11.868331
 263  1      9.956067 24.640000 14.357348
 264  1      9.956067 24.640000 1.912265
 265  1      9.956067 28.160000 4.383090
 266  1      9.956067 28.160000 6.872107
 267  1      9.956067 28.160000 9.361123
 268  1      9.956067 28.160000 11.850140
 269  1      9.956067 28.160000 14.339156
 270  1      9.956067 28.160000 1.894073
 271  1      9.956067 31.680000 4.383115
 272  1      9.956067 31.680000 6.872131
 273  1      9.956067 31.680000 9.361148
 274  1      9.956067 31.680000 11.850164
 275  1      9.956067 31.680000 14.339181
 276  1      9.956067 31.680000 1.894098
 277  1      9.956067 35.200000 4.391225
 278  1      9.956067 35.200000 6.880241
 279  1      9.956067 35.200000 9.369258
 280  1      9.956067 35.200000 11.858275
 281  1      9.956067 35.200000 14.347291
 282  1      9.956067 35.200000 1.902208
 283  1      9.956067 38.720000 4.402791
 284  1      9.956067 38.720000 6.891808
 285  1      9.956067 38.720000 9.380825
 286  1      9.956067 38.720000 11.869841
 287  1      9.956067 38.720000 14.358858
 288  1      9.956067 38.720000 1.913775
 289  1      9.956067 42.240000 4.415689
 290  1      9.956067 42.240000 6.904705
 291  1      9.956067 42.240000 9.393722
 292  1      9.956067 42.240000 11.882739
 293  1      9.956067 42.240000 14.371755
 294  1      9.956067 42.240000 1.926672
 295  1      9.956067 45.760000 4.429135
 296  1      9.956067 45.760000 6.918152
 297  1      9.956067 45.760000 9.407168
 298  1      9.956067 45.760000 11.896185
 299  1      9.956067 45.760000 14.385202
 300  1      9.956067 45.760000 1.940118
 301  1      9.956067 49.280000 4.443000
 302  1      9.956067 49.280000 6.932017
 303  1      9.956067 49.280000 9.421034
 304  1      9.956067 49.280000 11.910050
 305  1      9.956067 49.280000 14.399067
 306  1      9.956067 49.280000 1.953984
 307  1      9.956067 52.800000 4.457295
 308  1      9.956067 52.800000 6.946312
 309  1      9.956067 52.800000 9.435328
 310  1      9.956067 52.800000 11.924345
 311  1      9.956067 52.800000 14.413362
 312  1      9.956067 52.800000 1.968278
 313  1      9.956067 56.320000 4.471646
 314  1      9.956067 56.320000 6.960663
 315  1      9.956067 56.320000 9.449679
 316  1      9.956067 56.320000 11.938696
 317  1      9.956067 56.320000 14.427713
 318  1      9.956067 56.320000 1.982629
 319  1      9.956067 59.840000 4.484892
 320  1      9.956067 59.840000 6.973908
 321  1      9.956067 59.840000 9.462925
 322  1      9.956067 59.840000 11.951942
 323  1      9.956067 59.840000 14.440958
 324  1      9.956067 59.840000 1.995875
 325  1      14.934100 0.000000 2.651887
 326  1      14.934100 0.000000 5.140904
 327  1      14.934100 0.000000 7.629920
 328  1      14.934100 0.000000 10.118937
 329  1      14.934100 0.000000 12.607954
 330  1      14.934100 0.000000 0.162870
 331  1      14.934100 3.520000 2.688481
 332  1      14.934100 3.520000 5.177498
 333  1      14.934100 3.520000 7.666514
 334  1      14.934100 3.520000 10.155531
 335  1      14.934100 3.520000 12.644548
 336  1      14.934100 3.520000 0.199464
 337  1      14.934100 7.040000 2.724684
 338  1      14.934100 7.040000 5.213701
 339  1      14.934100 7.040000 7.702717
 340  1      14.934100 7.040000 10.191734
 341  1      14.934100 7.040000 12.680751
 342  1      14.934100 7.040000 0.235668
 343  1      14.934100 10.560000 2.760736
 344  1      14.934100 10.560000 5.249753
 345  1      14.934100 10.560000 7.738769
 346  1      14.934100 10.560000 10.227786
 347  1      14.934100 10.560000 12.716803
 348  1      14.934100 10.560000 0.271719
 349  1      14.934100 14.080000 0.306842
 350  1      14.934100 14.080000 2.795859
 351  1      14.934100 14.080000 5.284875
 352  1      14.934100 14.080000 7.773892
 353  1      14.934100 14.080000 10.262908
 354  1      14.934100 14.080000 12.751925
 355  1      14.934100 17.600000 4.073460
 356  1      14.934100 17.600000 6.562477
 357  1      14.934100 17.600000 9.051493
 358  1      14.934100 17.600000 11.540510
 359  1      14.934100 17.600000 14.029527
 360  1      14.934100 17.600000 1.584444
 361  1      14.934100 21.120000 4.110557
 362  1      14.934100 21.120000 6.599574
 363  1      14.934100 21.120000 9.088591
 364  1      14.934100 21.120000 11.577607
 365  1      14.934100 21.120000 14.066624
 366  1      14.934100 21.120000 1.621541
 367  1      14.934100 24.640000 4.146796
 368  1      14.934100 24.640000 6.635812
 369  1      14.934100 24.640000 9.124829
 370  1      14.934100 24.640000 11.613846
 371  1      14.934100 24.640000 14.102862
 372  1      14.934100 24.640000 1.657779
 373  1      14.934100 28.160000 4.183270
 374  1      14.934100 28.160000 6.672287
 375  1      14.934100 28.160000 9.161303
 376  1      14.934100 28.160000 11.650320
 377  1      14.934100 28.160000 14.139337
 378  1      14.934100 28.160000 1.694253
 379  1      14.934100 31.680000 4.220216
 380  1      14.934100 31.680000 6.709233
 381  1      14.934100 31.680000 9.198249
 382  1      14.934100 31.680000 11.687266
 383  1      14.934100 31.680000 14.176283
 384  1      14.934100 31.680000 1.731199
 385  1      14.934100 35.200000 4.257743
 386  1      14.934100 35.200000 6.746759
 387  1      14.934100 35.200000 9.235776
 388  1      14.934100 35.200000 11.724793
 389  1      14.934100 35.200000 14.213809
 390  1      14.934100 35.200000 1.768726
 391  1      14.934100 38.720000 4.295861
 392  1      14.934100 38.720000 6.784877
 393  1      14.934100 38.720000 9.273894
 394  1      14.934100 38.720000 11.762911
 395  1      14.934100 38.720000 14.251927
 396  1      14.934100 38.720000 1.806844
 397  1      14.934100 42.240000 4.334461
 398  1      14.934100 42.240000 6.823478
 399  1      14.934100 42.240000 9.312494
 400  1      14.934100 42.240000 11.801511
 401  1      14.934100 42.240000 14.290528
 402  1      14.934100 42.240000 1.845444
 403  1      14.934100 45.760000 4.373322
 404  1      14.934100 45.760000 6.862339
 405  1      14.934100 45.760000 9.351355
 406  1      14.934100 45.760000 11.840372
 407  1      14.934100 45.760000 14.329388
 408  1      14.934100 45.760000 1.884305
 409  1      14.934100 49.280000 4.412130
 410  1      14.934100 49.280000 6.901147
 411  1      14.934100 49.280000 9.390163
 412  1      14.934100 49.280000 11.879180
 413  1      14.934100 49.280000 14.368196
 414  1      14.934100 49.280000 1.923113
 415  1      14.934100 52.800000 4.450579
 416  1      14.934100 52.800000 6.939596
 417  1      14.934100 52.800000 9.428612
 418  1      14.934100 52.800000 11.917629
 419  1      14.934100 52.800000 14.406645
 420  1      14.934100 52.800000 1.961562
 421  1      14.934100 56.320000 4.488444
 422  1      14.934100 56.320000 6.977460
 423  1      14.934100 56.320000 9.466477
 424  1      14.934100 56.320000 11.955493
 425  1      14.934100 56.320000 14.444510
 426  1      14.934100 56.320000 1.999427
 427  1      14.934100 59.840000 4.525615
 428  1      14.934100 59.840000 7.014631
 429  1      14.934100 59.840000 9.503648
 430  1      14.934100 59.840000 11.992665
 431  1      14.934100 59.840000 14.481681
 432  1      14.934100 59.840000 2.036598
 433  1      19.912133 0.000000 2.720956
 434  1      19.912133 0.000000 5.209973
 435  1      19.912133 0.000000 7.698990
 436  1      19.912133 0.000000 10.188006
 437  1      19.912133 0.000000 12.677023
 438  1      19.912133 0.000000 0.231940
 439  1      19.912133 3.520000 2.791980
 440  1      19.912133 3.520000 5.280996
 441  1      19.912133 3.520000 7.770013
 442  1      19.912133 3.520000 10.259029
 443  1      19.912133 3.520000 12.748046
 444  1      19.912133 3.520000 0.302963
 445  1      19.912133 7.040000 2.880757
 446  1      19.912133 7.040000 5.369774
 447  1      19.912133 7.040000 7.858791
 448  1      19.912133 7.040000 10.347807
 449  1      19.912133 7.040000 12.836824
 450  1      19.912133 7.040000 0.391741
 451  1      19.912133 10.560000 3.011511
 452  1      19.912133 10.560000 5.500528
 453  1      19.912133 10.560000 7.989545
 454  1      19.912133 10.560000 10.478561
 455  1      19.912133 10.560000 12.967578
 456  1      19.912133 10.560000 0.522495
 457  1      19.912133 14.080000 3.233792
 458  1      19.912133 14.080000 5.722809
 459  1      19.912133 14.080000 8.211826
 460  1      19.912133 14.080000 10.700842
 461  1      19.912133 14.080000 13.189859
 462  1      19.912133 14.080000 0.744776
 463  1      19.912133 17.600000 3.536734
 464  1      19.912133 17.600000 6.025751
 465  1      19.912133 17.600000 8.514767
 466  1      19.912133 17.600000 11.003784
 467  1      19.912133 17.600000 13.492801
 468  1      19.912133 17.600000 1.047717
 469  1      19.912133 21.120000 3.759656
 470  1      19.912133 21.120000 6.248672
 471  1      19.912133 21.120000 8.737689
 472  1      19.912133 21.120000 11.226706
 473  1      19.912133 21.120000 13.715722
 474  1      19.912133 21.120000 1.270639
 475  1      19.912133 24.640000 3.891712
 476  1      19.912133 24.640000 6.380729
 477  1      19.912133 24.640000 8.869745
 478  1      19.912133 24.640000 11.358762
 479  1      19.912133 24.640000 13.847779
 480  1      19.912133 24.640000 1.402695
 481  1      19.912133 28.160000 3.982472
 482  1      19.912133 28.160000 6.471488
 483  1      19.912133 28.160000 8.960505
 484  1      19.912133 28.160000 11.449522
 485  1      19.912133 28.160000 13.938538
 486  1      19.912133 28.160000 1.493455
 487  1      19.912133 31.680000 4.056114
 488  1      19.912133 31.680000 6.545130
 489  1      19.912133 31.680000 9.034147
 490  1      19.912133 31.680000 11.523164
 491  1      19.912133 31.680000 14.012180
 492  1      19.912133 31.680000 1.567097
 493  1      19.912133 35.200000 4.123015
 494  1      19.912133 35.200000 6.612031
 495  1      19.912133 35.200000 9.101048
 496  1      19.912133 35.200000 11.590065
 497  1      19.912133 35.200000 14.079081
 498  1      19.912133 35.200000 1.633998
 499  1      19.912133 38.720000 4.187895
 500  1      19.912133 38.720000 6.676912
 501  1      19.912133 38.720000 9.165929
 502  1      19.912133 38.720000 11.654945
 503  1      19.912133 38.720000 14.143962
 504  1      19.912133 38.720000 1.698879
 505  1      19.912133 42.240000 4.252677
 506  1      19.912133 42.240000 6.741694
 507  1      19.912133 42.240000 9.230711
 508  1      19.912133 42.240000 11.719727
 509  1      19.912133 42.240000 14.208744
 510  1      19.912133 42.240000 1.763661
 511  1      19.912133 45.760000 4.317607
 512  1      19.912133 45.760000 6.806624
 513  1      19.912133 45.760000 9.295641
 514  1      19.912133 45.760000 11.784657
 515  1      19.912133 45.760000 14.273674
 516  1      19.912133 45.760000 1.828591
 517  1      19.912133 49.280000 4.382013
 518  1      19.912133 49.280000 6.871029
 519  1      19.912133 49.280000 9.360046
 520  1      19.912133 49.280000 11.849063
 521  1      19.912133 49.280000 14.338079
 522  1      19.912133 49.280000 1.892996
 523  1      19.912133 52.800000 4.445102
 524  1      19.912133 52.800000 6.934118
 525  1      19.912133 52.800000 9.423135
 526  1      19.912133 52.800000 11.912152
 527  1      19.912133 52.800000 14.401168
 528  1      19.912133 52.800000 1.956085
 529  1      19.912133 56.320000 4.506695
 530  1      19.912133 56.320000 6.995711
 531  1      19.912133 56.320000 9.484728
 532  1      19.912133 56.320000 11.973745
 533  1      19.912133 56.320000 14.462761
 534  1      19.912133 56.320000 2.017678
 535  1      19.912133 59.840000 4.567756
 536  1      19.912133 59.840000 7.056773
 537  1      19.912133 59.840000 9.545789
 538  1      19.912133 59.840000 12.034806
 539  1      19.912133 59.840000 14.523823
 540  1      19.912133 59.840000 2.078740
 541  1      24.890166 0.000000 2.777889
 542  1      24.890166 0.000000 5.266906
 543  1      24.890166 0.000000 7.755922
 544  1      24.890166 0.000000 10.244939
 545  1      24.890166 0.000000 12.733956
 546  1      24.890166 0.000000 0.288872
 547  1      24.890166 3.520000 0.374715
 548  1      24.890166 3.520000 2.863731
 549  1      24.890166 3.520000 5.352748
 550  1      24.890166 3.520000 7.841764
 551  1      24.890166 3.520000 10.330781
 552  1      24.890166 3.520000 12.819798
 553  1      24.890166 7.040000 2.967899
 554  1      24.890166 7.040000 5.456915
 555  1      24.890166 7.040000 7.945932
 556  1      24.890166 7.040000 10.434948
 557  1      24.890166 7.040000 12.923965
 558  1      24.890166 7.040000 0.478882
 559  1      24.890166 10.560000 3.094362
 560  1      24.890166 10.560000 5.583378
 561  1      24.890166 10.560000 8.072395
 562  1      24.890166 10.560000 10.561412
 563  1      24.890166 10.560000 13.050428
 564  1      24.890166 10.560000 0.605345
 565  1      24.890166 14.080000 3.249453
 566  1      24.890166 14.080000 5.738469
 567  1      24.890166 14.080000 8.227486
 568  1      24.890166 14.080000 10.716503
 569  1      24.890166 14.080000 13.205519
 570  1      24.890166 14.080000 0.760436
 571  1      24.890166 17.600000 3.419127
 572  1      24.890166 17.600000 5.908144
 573  1      24.890166 17.600000 8.397161
 574  1      24.890166 17.600000 10.886177
 575  1      24.890166 17.600000 13.375194
 576  1      24.890166 17.600000 0.930111
 577  1      24.890166 21.120000 3.575356
 578  1      24.890166 21.120000 6.064372
 579  1      24.890166 21.120000 8.553389
 580  1      24.890166 21.120000 11.042405
 581  1      24.890166 21.120000 13.531422
 582  1      24.890166 21.120000 1.086339
 583  1      24.890166 24.640000 3.704177
 584  1      24.890166 24.640000 6.193194
 585  1      24.890166 24.640000 8.682210
 586  1      24.890166 24.640000 11.171227
 587  1      24.890166 24.640000 13.660244
 588  1      24.890166 24.640000 1.215160
 589  1      24.890166 28.160000 3.810185
 590  1      24.890166 28.160000 6.299202
 591  1      24.890166 28.160000 8.788219
 592  1      24.890166 28.160000 11.277235
 593  1      24.890166 28.160000 13.766252
 594  1      24.890166 28.160000 1.321169
 595  1      24.890166 31.680000 3.903113
 596  1      24.890166 31.680000 6.392130
 597  1      24.890166 31.680000 8.881147
 598  1      24.890166 31.680000 11.370163
 599  1      24.890166 31.680000 13.859180
 600  1      24.890166 31.680000 1.414097
 601  1      24.890166 35.200000 3.991060
 602  1      24.890166 35.200000 6.480077
 603  1      24.890166 35.200000 8.969094
 604  1      24.890166 35.200000 11.458110
 605  1      24.890166 35.200000 13.947127
 606  1      24.890166 35.200000 1.502044
 607  1      24.890166 38.720000 4.079300
 608  1      24.890166 38.720000 6.568316
 609  1      24.890166 38.720000 9.057333
 610  1      24.890166 38.720000 11.546350
 611  1      24.890166 38.720000 14.035366
 612  1      24.890166 38.720000 1.590283
 613  1      24.890166 42.240000 4.170126
 614  1      24.890166 42.240000 6.659143
 615  1      24.890166 42.240000 9.148160
 616  1      24.890166 42.240000 11.637176
 617  1      24.890166 42.240000 14.126193
 618  1      24.890166 42.240000 1.681110
 619  1      24.890166 45.760000 4.262892
 620  1      24.890166 45.760000 6.751909
 621  1      24.890166 45.760000 9.240926
 622  1      24.890166 45.760000 11.729942
 623  1      24.890166 45.760000 14.218959
 624  1      24.890166 45.760000 1.773876
 625  1      24.890166 49.280000 4.354870
 626  1      24.890166 49.280000 6.843887
 627  1      24.890166 49.280000 9.332903
 628  1      24.890166 49.280000 11.821920
 629  1      24.890166 49.280000 14.310937
 630  1      24.890166 49.280000 1.865853
 631  1      24.890166 52.800000 4.443201
 632  1      24.890166 52.800000 6.932218
 633  1      24.890166 52.800000 9.421234
 634  1      24.890166 52.800000 11.910251
 635  1      24.890166 52.800000 14.399268
 636  1      24.890166 52.800000 1.954184
 637  1      24.890166 56.320000 4.526769
 638  1      24.890166 56.320000 7.015786
 639  1      24.890166 56.320000 9.504803
 640  1      24.890166 56.320000 11.993819
 641  1      24.890166 56.320000 14.482836
 642  1      24.890166 56.320000 2.037753
 643  1      24.890166 59.840000 4.606976
 644  1      24.890166 59.840000 7.095993
 645  1      24.890166 59.840000 9.585009
 646  1      24.890166 59.840000 12.074026
 647  1      24.890166 59.840000 14.563043
 648  1      24.890166 59.840000 2.117959
 649  1      29.868200 0.000000 2.823336
 650  1      29.868200 0.000000 5.312352
 651  1      29.868200 0.000000 7.801369
 652  1      29.868200 0.000000 10.290386
 653  1      29.868200 0.000000 12.779402
 654  1      29.868200 0.000000 0.334319
 655  1      29.868200 3.520000 2.911318
 656  1      29.868200 3.520000 5.400335
 657  1      29.868200 3.520000 7.889351
 658  1      29.868200 3.520000 10.378368
 659  1      29.868200 3.520000 12.867385
 660  1      29.868200 3.520000 0.422301
 661  1      29.868200 7.040000 3.005446
 662  1      29.868200 7.040000 5.494463
 663  1      29.868200 7.040000 7.983480
 664  1      29.868200 7.040000 10.472496
 665  1      29.868200 7.040000 12.961513
 666  1      29.868200 7.040000 0.516430
 667  1      29.868200 10.560000 3.109406
 668  1      29.868200 10.560000 5.598423
 669  1      29.868200 10.560000 8.087439
 670  1      29.868200 10.560000 10.576456
 671  1      29.868200 10.560000 13.065473
 672  1      29.868200 10.560000 0.620389
 673  1      29.868200 14.080000 3.223088
 674  1      29.868200 14.080000 5.712105
 675  1      29.868200 14.080000 8.201121
 676  1      29.868200 14.080000 10.690138
 677  1      29.868200 14.080000 13.179155
 678  1      29.868200 14.080000 0.734071
 679  1      29.868200 17.600000 3.341325
 680  1      29.868200 17.600000 5.830341
 681  1      29.868200 17.600000 8.319358
 682  1      29.868200 17.600000 10.808375
 683  1      29.868200 17.600000 13.297391
 684  1      29.868200 17.600000 0.852308
 685  1      29.868200 21.120000 3.456446
 686  1      29.868200 21.120000 5.945463
 687  1      29.868200 21.120000 8.434480
 688  1      29.868200 21.120000 10.923496
 689  1      29.868200 21.120000 13.412513
 690  1      29.868200 21.120000 0.967430
 691  1      29.868200 24.640000 3.563493
 692  1      29.868200 24.640000 6.052510
 693  1      29.868200 24.640000 8.541526
 694  1      29.868200 24.640000 11.030543
 695  1      29.868200 24.640000 13.519560
 696  1      29.868200 24.640000 1.074476
 697  1      29.868200 28.160000 3.662785
 698  1      29.868200 28.160000 6.151802
 699  1      29.868200 28.160000 8.640819
 700  1      29.868200 28.160000 11.129835
 701  1      29.868200 28.160000 13.618852
 702  1      29.868200 28.160000 1.173769
 703  1      29.868200 31.680000 3.758621
 704  1      29.868200 31.680000 6.247637
 705  1      29.868200 31.680000 8.736654
 706  1      29.868200 31.680000 11.225671
 707  1      29.868200 31.680000 13.714687
 708  1      29.868200 31.680000 1.269604
 709  1      29.868200 35.200000 3.857051
 710  1      29.868200 35.200000 6.346067
 711  1      29.868200 35.200000 8.835084
 712  1      29.868200 35.200000 11.324100
 713  1      29.868200 35.200000 13.813117
 714  1      29.868200 35.200000 1.368034