# Converted from POSCAR to lammps format

32400 atoms
1 atom types

0.000000  149.340998   xlo xhi
0.000000  158.400000   ylo yhi
0.000000   14.934100   zlo zhi

  0.000000    0.000000    0.000000   xy xz yz

Atoms

   1  1      0.000000 0.000000 2.490903
   2  1      0.000000 0.000000 4.979910
   3  1      0.000000 0.000000 7.468932
   4  1      0.000000 0.000000 9.957953
   5  1      0.000000 0.000000 12.446960
   6  1      0.000000 0.000000 0.001882
   7  1      0.000000 3.519965 2.484586
   8  1      0.000000 3.519965 4.973593
   9  1      0.000000 3.519965 7.462615
  10  1      0.000000 3.519965 9.951636
  11  1      0.000000 3.519965 12.440643
  12  1      0.000000 3.519965 14.929665
  13  1      0.000000 7.039930 2.477955
  14  1      0.000000 7.039930 4.966977
  15  1      0.000000 7.039930 7.455984
  16  1      0.000000 7.039930 9.945005
  17  1      0.000000 7.039930 12.434027
  18  1      0.000000 7.039930 14.923034
  19  1      0.000000 10.560053 2.470727
  20  1      0.000000 10.560053 4.959734
  21  1      0.000000 10.560053 7.448756
  22  1      0.000000 10.560053 9.937777
  23  1      0.000000 10.560053 12.426784
  24  1      0.000000 10.560053 14.915806
  25  1      0.000000 14.080018 2.462603
  26  1      0.000000 14.080018 4.951625
  27  1      0.000000 14.080018 7.440647
  28  1      0.000000 14.080018 9.929653
  29  1      0.000000 14.080018 12.418675
  30  1      0.000000 14.080018 14.907697
  31  1      0.000000 17.599982 2.453359
  32  1      0.000000 17.599982 4.942366
  33  1      0.000000 17.599982 7.431387
  34  1      0.000000 17.599982 9.920409
  35  1      0.000000 17.599982 12.409416
  36  1      0.000000 17.599982 14.898437
  37  1      0.000000 21.119947 2.442786
  38  1      0.000000 21.119947 4.931792
  39  1      0.000000 21.119947 7.420814
  40  1      0.000000 21.119947 9.909836
  41  1      0.000000 21.119947 12.398842
  42  1      0.000000 21.119947 14.887864
  43  1      0.000000 24.640070 2.430764
  44  1      0.000000 24.640070 4.919785
  45  1      0.000000 24.640070 7.408792
  46  1      0.000000 24.640070 9.897814
  47  1      0.000000 24.640070 12.386835
  48  1      0.000000 24.640070 14.875842
  49  1      0.000000 28.160035 2.417263
  50  1      0.000000 28.160035 4.906285
  51  1      0.000000 28.160035 7.395307
  52  1      0.000000 28.160035 9.884313
  53  1      0.000000 28.160035 12.373335
  54  1      0.000000 28.160035 14.862357
  55  1      0.000000 31.680000 2.402374
  56  1      0.000000 31.680000 4.891396
  57  1      0.000000 31.680000 7.380402
  58  1      0.000000 31.680000 9.869424
  59  1      0.000000 31.680000 12.358446
  60  1      0.000000 31.680000 14.847452
  61  1      0.000000 35.199965 2.386275
  62  1      0.000000 35.199965 4.875282
  63  1      0.000000 35.199965 7.364303
  64  1      0.000000 35.199965 9.853325
  65  1      0.000000 35.199965 12.342332
  66  1      0.000000 35.199965 14.831353
  67  1      0.000000 38.719930 2.369265
  68  1      0.000000 38.719930 4.858287
  69  1      0.000000 38.719930 7.347293
  70  1      0.000000 38.719930 9.836315
  71  1      0.000000 38.719930 12.325337
  72  1      0.000000 38.719930 14.814343
  73  1      0.000000 42.240053 2.351747
  74  1      0.000000 42.240053 4.840754
  75  1      0.000000 42.240053 7.329776
  76  1      0.000000 42.240053 9.818797
  77  1      0.000000 42.240053 12.307804
  78  1      0.000000 42.240053 14.796826
  79  1      0.000000 45.760018 2.334140
  80  1      0.000000 45.760018 4.823162
  81  1      0.000000 45.760018 7.312168
  82  1      0.000000 45.760018 9.801190
  83  1      0.000000 45.760018 12.290212
  84  1      0.000000 45.760018 14.779218
  85  1      0.000000 49.279982 2.316891
  86  1      0.000000 49.279982 4.805898
  87  1      0.000000 49.279982 7.294920
  88  1      0.000000 49.279982 9.783941
  89  1      0.000000 49.279982 12.272948
  90  1      0.000000 49.279982 14.761970
  91  1      0.000000 52.799947 2.300344
  92  1      0.000000 52.799947 4.789366
  93  1      0.000000 52.799947 7.278373
  94  1      0.000000 52.799947 9.767394
  95  1      0.000000 52.799947 12.256416
  96  1      0.000000 52.799947 14.745423
  97  1      0.000000 56.320070 2.284798
  98  1      0.000000 56.320070 4.773805
  99  1      0.000000 56.320070 7.262826
 100  1      0.000000 56.320070 9.751848
 101  1      0.000000 56.320070 12.240855
 102  1      0.000000 56.320070 14.729876
 103  1      0.000000 59.840035 2.270386
 104  1      0.000000 59.840035 4.759408
 105  1      0.000000 59.840035 7.248430
 106  1      0.000000 59.840035 9.737436
 107  1      0.000000 59.840035 12.226458
 108  1      0.000000 59.840035 14.715480
 109  1      0.000000 63.360000 2.257170
 110  1      0.000000 63.360000 4.746191
 111  1      0.000000 63.360000 7.235213
 112  1      0.000000 63.360000 9.724220
 113  1      0.000000 63.360000 12.213241
 114  1      0.000000 63.360000 14.702263
 115  1      0.000000 66.879965 2.245073
 116  1      0.000000 66.879965 4.734095
 117  1      0.000000 66.879965 7.223116
 118  1      0.000000 66.879965 9.712123
 119  1      0.000000 66.879965 12.201145
 120  1      0.000000 66.879965 14.690166
 121  1      0.000000 70.399930 2.233932
 122  1      0.000000 70.399930 4.722954
 123  1      0.000000 70.399930 7.211961
 124  1      0.000000 70.399930 9.700982
 125  1      0.000000 70.399930 12.190004
 126  1      0.000000 70.399930 14.679011
 127  1      0.000000 73.920053 2.223508
 128  1      0.000000 73.920053 4.712530
 129  1      0.000000 73.920053 7.201552
 130  1      0.000000 73.920053 9.690558
 131  1      0.000000 73.920053 12.179580
 132  1      0.000000 73.920053 14.668602
 133  1      0.000000 77.440018 14.656744
 134  1      0.000000 77.440018 2.211666
 135  1      0.000000 77.440018 4.700687
 136  1      0.000000 77.440018 7.189694
 137  1      0.000000 77.440018 9.678716
 138  1      0.000000 77.440018 12.167737
 139  1      0.000000 80.959982 14.646932
 140  1      0.000000 80.959982 2.201854
 141  1      0.000000 80.959982 4.690875
 142  1      0.000000 80.959982 7.179882
 143  1      0.000000 80.959982 9.668904
 144  1      0.000000 80.959982 12.157925
 145  1      0.000000 84.479947 4.682408
 146  1      0.000000 84.479947 7.171415
 147  1      0.000000 84.479947 9.660436
 148  1      0.000000 84.479947 12.149458
 149  1      0.000000 84.479947 14.638465
 150  1      0.000000 84.479947 2.193386
 151  1      0.000000 88.000070 4.671969
 152  1      0.000000 88.000070 7.160991
 153  1      0.000000 88.000070 9.649997
 154  1      0.000000 88.000070 12.139019
 155  1      0.000000 88.000070 14.628041
 156  1      0.000000 88.000070 2.182947
 157  1      0.000000 91.520035 4.660798
 158  1      0.000000 91.520035 7.149820
 159  1      0.000000 91.520035 9.638827
 160  1      0.000000 91.520035 12.127848
 161  1      0.000000 91.520035 14.616870
 162  1      0.000000 91.520035 2.171777
 163  1      0.000000 95.040000 4.648672
 164  1      0.000000 95.040000 7.137693
 165  1      0.000000 95.040000 9.626700
 166  1      0.000000 95.040000 12.115722
 167  1      0.000000 95.040000 14.604743
 168  1      0.000000 95.040000 2.159650
 169  1      0.000000 98.559965 4.635410
 170  1      0.000000 98.559965 7.124432
 171  1      0.000000 98.559965 9.613454
 172  1      0.000000 98.559965 12.102460
 173  1      0.000000 98.559965 14.591482
 174  1      0.000000 98.559965 2.146404
 175  1      0.000000 102.079930 4.620969
 176  1      0.000000 102.079930 7.109991
 177  1      0.000000 102.079930 9.598997
 178  1      0.000000 102.079930 12.088019
 179  1      0.000000 102.079930 14.577041
 180  1      0.000000 102.079930 2.131947
 181  1      0.000000 105.600053 4.605363
 182  1      0.000000 105.600053 7.094384
 183  1      0.000000 105.600053 9.583391
 184  1      0.000000 105.600053 12.072413
 185  1      0.000000 105.600053 14.561434
 186  1      0.000000 105.600053 2.116341
 187  1      0.000000 109.120018 4.588756
 188  1      0.000000 109.120018 7.077778
 189  1      0.000000 109.120018 9.566799
 190  1      0.000000 109.120018 12.055806
 191  1      0.000000 109.120018 14.544828
 192  1      0.000000 109.120018 2.099749
 193  1      0.000000 112.639982 4.571433
 194  1      0.000000 112.639982 7.060454
 195  1      0.000000 112.639982 9.549461
 196  1      0.000000 112.639982 12.038483
 197  1      0.000000 112.639982 14.527504
 198  1      0.000000 112.639982 2.082411
 199  1      0.000000 116.159947 4.553751
 200  1      0.000000 116.159947 7.042772
 201  1      0.000000 116.159947 9.531794
 202  1      0.000000 116.159947 12.020801
 203  1      0.000000 116.159947 14.509822
 204  1      0.000000 116.159947 2.064744
 205  1      0.000000 119.680070 4.536143
 206  1      0.000000 119.680070 7.025165
 207  1      0.000000 119.680070 9.514187
 208  1      0.000000 119.680070 12.003193
 209  1      0.000000 119.680070 14.492215
 210  1      0.000000 119.680070 2.047137
 211  1      0.000000 123.200035 4.519044
 212  1      0.000000 123.200035 7.008065
 213  1      0.000000 123.200035 9.497087
 214  1      0.000000 123.200035 11.986094
 215  1      0.000000 123.200035 14.475115
 216  1      0.000000 123.200035 2.030037
 217  1      0.000000 126.720000 4.502840
 218  1      0.000000 126.720000 6.991862
 219  1      0.000000 126.720000 9.480884
 220  1      0.000000 126.720000 11.969890
 221  1      0.000000 126.720000 14.458912
 222  1      0.000000 126.720000 2.013834
 223  1      0.000000 130.239965 4.487846
 224  1      0.000000 130.239965 6.976853
 225  1      0.000000 130.239965 9.465875
 226  1      0.000000 130.239965 11.954896
 227  1      0.000000 130.239965 14.443903
 228  1      0.000000 130.239965 1.998825
 229  1      0.000000 133.759930 4.474226
 230  1      0.000000 133.759930 6.963248
 231  1      0.000000 133.759930 9.452255
 232  1      0.000000 133.759930 11.941276
 233  1      0.000000 133.759930 14.430298
 234  1      0.000000 133.759930 1.985205
 235  1      0.000000 137.280053 4.462085
 236  1      0.000000 137.280053 6.951107
 237  1      0.000000 137.280053 9.440113
 238  1      0.000000 137.280053 11.929135
 239  1      0.000000 137.280053 14.418157
 240  1      0.000000 137.280053 1.973063
 241  1      0.000000 140.800018 4.451377
 242  1      0.000000 140.800018 6.940399
 243  1      0.000000 140.800018 9.429406
 244  1      0.000000 140.800018 11.918427
 245  1      0.000000 140.800018 14.407449
 246  1      0.000000 140.800018 1.962356
 247  1      0.000000 144.319982 4.441984
 248  1      0.000000 144.319982 6.931005
 249  1      0.000000 144.319982 9.420027
 250  1      0.000000 144.319982 11.909034
 251  1      0.000000 144.319982 14.398055
 252  1      0.000000 144.319982 1.952977
 253  1      0.000000 147.839947 4.433725
 254  1      0.000000 147.839947 6.922732
 255  1      0.000000 147.839947 9.411754
 256  1      0.000000 147.839947 11.900775
 257  1      0.000000 147.839947 14.389782
 258  1      0.000000 147.839947 1.944704
 259  1      0.000000 151.360070 4.426333
 260  1      0.000000 151.360070 6.915354
 261  1      0.000000 151.360070 9.404361
 262  1      0.000000 151.360070 11.893383
 263  1      0.000000 151.360070 14.382404
 264  1      0.000000 151.360070 1.937311
 265  1      0.000000 154.880035 4.419538
 266  1      0.000000 154.880035 6.908559
 267  1      0.000000 154.880035 9.397581
 268  1      0.000000 154.880035 11.886588
 269  1      0.000000 154.880035 14.375609
 270  1      0.000000 154.880035 1.930531
 271  1      4.977983 0.000000 2.504344
 272  1      4.977983 0.000000 4.993366
 273  1      4.977983 0.000000 7.482372
 274  1      4.977983 0.000000 9.971394
 275  1      4.977983 0.000000 12.460416
 276  1      4.977983 0.000000 0.015322
 277  1      4.977983 3.519965 2.498146
 278  1      4.977983 3.519965 4.987168
 279  1      4.977983 3.519965 7.476175
 280  1      4.977983 3.519965 9.965196
 281  1      4.977983 3.519965 12.454218
 282  1      4.977983 3.519965 0.009125
 283  1      4.977983 7.039930 2.491232
 284  1      4.977983 7.039930 4.980254
 285  1      4.977983 7.039930 7.469260
 286  1      4.977983 7.039930 9.958282
 287  1      4.977983 7.039930 12.447304
 288  1      4.977983 7.039930 0.002210
 289  1      4.977983 10.560053 2.483272
 290  1      4.977983 10.560053 4.972294
 291  1      4.977983 10.560053 7.461300
 292  1      4.977983 10.560053 9.950322
 293  1      4.977983 10.560053 12.439344
 294  1      4.977983 10.560053 14.928350
 295  1      4.977983 14.080018 2.473923
 296  1      4.977983 14.080018 4.962945
 297  1      4.977983 14.080018 7.451967
 298  1      4.977983 14.080018 9.940973
 299  1      4.977983 14.080018 12.429995
 300  1      4.977983 14.080018 14.919017
 301  1      4.977983 17.599982 2.462887
 302  1      4.977983 17.599982 4.951909
 303  1      4.977983 17.599982 7.440930
 304  1      4.977983 17.599982 9.929937
 305  1      4.977983 17.599982 12.418959
 306  1      4.977983 17.599982 14.907980
 307  1      4.977983 21.119947 2.449894
 308  1      4.977983 21.119947 4.938916
 309  1      4.977983 21.119947 7.427923
 310  1      4.977983 21.119947 9.916944
 311  1      4.977983 21.119947 12.405966
 312  1      4.977983 21.119947 14.894973
 313  1      4.977983 24.640070 2.434751
 314  1      4.977983 24.640070 4.923758
 315  1      4.977983 24.640070 7.412779
 316  1      4.977983 24.640070 9.901801
 317  1      4.977983 24.640070 12.390808
 318  1      4.977983 24.640070 14.879829
 319  1      4.977983 28.160035 2.417383
 320  1      4.977983 28.160035 4.906389
 321  1      4.977983 28.160035 7.395411
 322  1      4.977983 28.160035 9.884433
 323  1      4.977983 28.160035 12.373439
 324  1      4.977983 28.160035 14.862461
 325  1      4.977983 31.680000 2.397879
 326  1      4.977983 31.680000 4.886900
 327  1      4.977983 31.680000 7.375907
 328  1      4.977983 31.680000 9.864929
 329  1      4.977983 31.680000 12.353950
 330  1      4.977983 31.680000 14.842957
 331  1      4.977983 35.199965 2.376523
 332  1      4.977983 35.199965 4.865545
 333  1      4.977983 35.199965 7.354551
 334  1      4.977983 35.199965 9.843573
 335  1      4.977983 35.199965 12.332595
 336  1      4.977983 35.199965 14.821601
 337  1      4.977983 38.719930 2.353778
 338  1      4.977983 38.719930 4.842800
 339  1      4.977983 38.719930 7.331822
 340  1      4.977983 38.719930 9.820828
 341  1      4.977983 38.719930 12.309850
 342  1      4.977983 38.719930 14.798872
 343  1      4.977983 42.240053 2.330287
 344  1      4.977983 42.240053 4.819294
 345  1      4.977983 42.240053 7.308315
 346  1      4.977983 42.240053 9.797337
 347  1      4.977983 42.240053 12.286344
 348  1      4.977983 42.240053 14.775365
 349  1      4.977983 45.760018 2.306736
 350  1      4.977983 45.760018 4.795758
 351  1      4.977983 45.760018 7.284779
 352  1      4.977983 45.760018 9.773786
 353  1      4.977983 45.760018 12.262808
 354  1      4.977983 45.760018 14.751829
 355  1      4.977983 49.279982 2.283857
 356  1      4.977983 49.279982 4.772864
 357  1      4.977983 49.279982 7.261885
 358  1      4.977983 49.279982 9.750907
 359  1      4.977983 49.279982 12.239914
 360  1      4.977983 49.279982 14.728935
 361  1      4.977983 52.799947 2.262232
 362  1      4.977983 52.799947 4.751239
 363  1      4.977983 52.799947 7.240261
 364  1      4.977983 52.799947 9.729282
 365  1      4.977983 52.799947 12.218289
 366  1      4.977983 52.799947 14.707311
 367  1      4.977983 56.320070 2.242295
 368  1      4.977983 56.320070 4.731302
 369  1      4.977983 56.320070 7.220324
 370  1      4.977983 56.320070 9.709345
 371  1      4.977983 56.320070 12.198352
 372  1      4.977983 56.320070 14.687374
 373  1      4.977983 59.840035 2.224270
 374  1      4.977983 59.840035 4.713277
 375  1      4.977983 59.840035 7.202298
 376  1      4.977983 59.840035 9.691320
 377  1      4.977983 59.840035 12.180327
 378  1      4.977983 59.840035 14.669348
 379  1      4.977983 63.360000 2.208216
 380  1      4.977983 63.360000 4.697222
 381  1      4.977983 63.360000 7.186244
 382  1      4.977983 63.360000 9.675266
 383  1      4.977983 63.360000 12.164272
 384  1      4.977983 63.360000 14.653294
 385  1      4.977983 66.879965 2.194013
 386  1      4.977983 66.879965 4.683035
 387  1      4.977983 66.879965 7.172042
 388  1      4.977983 66.879965 9.661063
 389  1      4.977983 66.879965 12.150085
 390  1      4.977983 66.879965 14.639092
 391  1      4.977983 70.399930 14.624651
 392  1      4.977983 70.399930 2.179572
 393  1      4.977983 70.399930 4.668579
 394  1      4.977983 70.399930 7.157601
 395  1      4.977983 70.399930 9.646622
 396  1      4.977983 70.399930 12.135629
 397  1      4.977983 73.920053 14.613435
 398  1      4.977983 73.920053 2.168357
 399  1      4.977983 73.920053 4.657378
 400  1      4.977983 73.920053 7.146385
 401  1      4.977983 73.920053 9.635407
 402  1      4.977983 73.920053 12.124428
 403  1      4.977983 77.440018 14.603250
 404  1      4.977983 77.440018 2.158157
 405  1      4.977983 77.440018 4.647178
 406  1      4.977983 77.440018 7.136200
 407  1      4.977983 77.440018 9.625207
 408  1      4.977983 77.440018 12.114228
 409  1      4.977983 80.959982 4.639174
 410  1      4.977983 80.959982 7.128195
 411  1      4.977983 80.959982 9.617217
 412  1      4.977983 80.959982 12.106224
 413  1      4.977983 80.959982 14.595245
 414  1      4.977983 80.959982 2.150167
 415  1      4.977983 84.479947 4.630034
 416  1      4.977983 84.479947 7.119056
 417  1      4.977983 84.479947 9.608062
 418  1      4.977983 84.479947 12.097084
 419  1      4.977983 84.479947 14.586106
 420  1      4.977983 84.479947 2.141012
 421  1      4.977983 88.000070 4.620939
 422  1      4.977983 88.000070 7.109961
 423  1      4.977983 88.000070 9.598982
 424  1      4.977983 88.000070 12.087989
 425  1      4.977983 88.000070 14.577011
 426  1      4.977983 88.000070 2.131932
 427  1      4.977983 91.520035 4.611650
 428  1      4.977983 91.520035 7.100657
 429  1      4.977983 91.520035 9.589678
 430  1      4.977983 91.520035 12.078700
 431  1      4.977983 91.520035 14.567707
 432  1      4.977983 91.520035 2.122628
 433  1      4.977983 95.040000 4.601943
 434  1      4.977983 95.040000 7.090950
 435  1      4.977983 95.040000 9.579971
 436  1      4.977983 95.040000 12.068993
 437  1      4.977983 95.040000 14.558000
 438  1      4.977983 95.040000 2.112921
 439  1      4.977983 98.559965 4.591668
 440  1      4.977983 98.559965 7.080675
 441  1      4.977983 98.559965 9.569697
 442  1      4.977983 98.559965 12.058718
 443  1      4.977983 98.559965 14.547725
 444  1      4.977983 98.559965 2.102647
 445  1      4.977983 102.079930 4.580751
 446  1      4.977983 102.079930 7.069773
 447  1      4.977983 102.079930 9.558780
 448  1      4.977983 102.079930 12.047801
 449  1      4.977983 102.079930 14.536823
 450  1      4.977983 102.079930 2.091730
 451  1      4.977983 105.600053 4.569207
 452  1      4.977983 105.600053 7.058229
 453  1      4.977983 105.600053 9.547236
 454  1      4.977983 105.600053 12.036257
 455  1      4.977983 105.600053 14.525279
 456  1      4.977983 105.600053 2.080186
 457  1      4.977983 109.120018 4.557126
 458  1      4.977983 109.120018 7.046132
 459  1      4.977983 109.120018 9.535154
 460  1      4.977983 109.120018 12.024176
 461  1      4.977983 109.120018 14.513182
 462  1      4.977983 109.120018 2.068104
 463  1      4.977983 112.639982 4.544656
 464  1      4.977983 112.639982 7.033662
 465  1      4.977983 112.639982 9.522684
 466  1      4.977983 112.639982 12.011706
 467  1      4.977983 112.639982 14.500712
 468  1      4.977983 112.639982 2.055634
 469  1      4.977983 116.159947 4.532021
 470  1      4.977983 116.159947 7.021043
 471  1      4.977983 116.159947 9.510065
 472  1      4.977983 116.159947 11.999071
 473  1      4.977983 116.159947 14.488093
 474  1      4.977983 116.159947 2.043015
 475  1      4.977983 119.680070 4.519492
 476  1      4.977983 119.680070 7.008513
 477  1      4.977983 119.680070 9.497520
 478  1      4.977983 119.680070 11.986542
 479  1      4.977983 119.680070 14.475563
 480  1      4.977983 119.680070 2.030470
 481  1      4.977983 123.200035 4.507320
 482  1      4.977983 123.200035 6.996327
 483  1      4.977983 123.200035 9.485349
 484  1      4.977983 123.200035 11.974370
 485  1      4.977983 123.200035 14.463377
 486  1      4.977983 123.200035 2.018299
 487  1      4.977983 126.720000 4.495732
 488  1      4.977983 126.720000 6.984753
 489  1      4.977983 126.720000 9.473760
 490  1      4.977983 126.720000 11.962782
 491  1      4.977983 126.720000 14.451803
 492  1      4.977983 126.720000 2.006710
 493  1      4.977983 130.239965 4.484934
 494  1      4.977983 130.239965 6.973941
 495  1      4.977983 130.239965 9.462963
 496  1      4.977983 130.239965 11.951984
 497  1      4.977983 130.239965 14.440991
 498  1      4.977983 130.239965 1.995913
 499  1      4.977983 133.759930 4.475018
 500  1      4.977983 133.759930 6.964040
 501  1      4.977983 133.759930 9.453061
 502  1      4.977983 133.759930 11.942068
 503  1      4.977983 133.759930 14.431090
 504  1      4.977983 133.759930 1.986011
 505  1      4.977983 137.280053 4.466072
 506  1      4.977983 137.280053 6.955094
 507  1      4.977983 137.280053 9.444101
 508  1      4.977983 137.280053 11.933122
 509  1      4.977983 137.280053 14.422144
 510  1      4.977983 137.280053 1.977051
 511  1      4.977983 140.800018 4.458038
 512  1      4.977983 140.800018 6.947060
 513  1      4.977983 140.800018 9.436066
 514  1      4.977983 140.800018 11.925088
 515  1      4.977983 140.800018 14.414110
 516  1      4.977983 140.800018 1.969016
 517  1      4.977983 144.319982 4.450825
 518  1      4.977983 144.319982 6.939831
 519  1      4.977983 144.319982 9.428853
 520  1      4.977983 144.319982 11.917875
 521  1      4.977983 144.319982 14.406881
 522  1      4.977983 144.319982 1.961803
 523  1      4.977983 147.839947 4.444269
 524  1      4.977983 147.839947 6.933275
 525  1      4.977983 147.839947 9.422297
 526  1      4.977983 147.839947 11.911319
 527  1      4.977983 147.839947 14.400325
 528  1      4.977983 147.839947 1.955247
 529  1      4.977983 151.360070 4.438161
 530  1      4.977983 151.360070 6.927167
 531  1      4.977983 151.360070 9.416189
 532  1      4.977983 151.360070 11.905211
 533  1      4.977983 151.360070 14.394217
 534  1      4.977983 151.360070 1.949139
 535  1      4.977983 154.880035 4.432247
 536  1      4.977983 154.880035 6.921253
 537  1      4.977983 154.880035 9.410275
 538  1      4.977983 154.880035 11.899297
 539  1      4.977983 154.880035 14.388303
 540  1      4.977983 154.880035 1.943225
 541  1      9.956116 0.000000 2.518561
 542  1      9.956116 0.000000 5.007568
 543  1      9.956116 0.000000 7.496590
 544  1      9.956116 0.000000 9.985611
 545  1      9.956116 0.000000 12.474618
 546  1      9.956116 0.000000 0.029540
 547  1      9.956116 3.519965 2.513125
 548  1      9.956116 3.519965 5.002147
 549  1      9.956116 3.519965 7.491169
 550  1      9.956116 3.519965 9.980175
 551  1      9.956116 3.519965 12.469197
 552  1      9.956116 3.519965 0.024119
 553  1      9.956116 7.039930 2.506614
 554  1      9.956116 7.039930 4.995621
 555  1      9.956116 7.039930 7.484642
 556  1      9.956116 7.039930 9.973664
 557  1      9.956116 7.039930 12.462671
 558  1      9.956116 7.039930 0.017592
 559  1      9.956116 10.560053 2.498594
 560  1      9.956116 10.560053 4.987616
 561  1      9.956116 10.560053 7.476623
 562  1      9.956116 10.560053 9.965644
 563  1      9.956116 10.560053 12.454666
 564  1      9.956116 10.560053 0.009573
 565  1      9.956116 14.080018 2.488663
 566  1      9.956116 14.080018 4.977685
 567  1      9.956116 14.080018 7.466692
 568  1      9.956116 14.080018 9.955713
 569  1      9.956116 14.080018 12.444735
 570  1      9.956116 14.080018 14.933742
 571  1      9.956116 17.599982 2.476387
 572  1      9.956116 17.599982 4.965409
 573  1      9.956116 17.599982 7.454431
 574  1      9.956116 17.599982 9.943437
 575  1      9.956116 17.599982 12.432459
 576  1      9.956116 17.599982 14.921481
 577  1      9.956116 21.119947 2.461364
 578  1      9.956116 21.119947 4.950385
 579  1      9.956116 21.119947 7.439392
 580  1      9.956116 21.119947 9.928414
 581  1      9.956116 21.119947 12.417435
 582  1      9.956116 21.119947 14.906442
 583  1      9.956116 24.640070 2.443249
 584  1      9.956116 24.640070 4.932255
 585  1      9.956116 24.640070 7.421277
 586  1      9.956116 24.640070 9.910299
 587  1      9.956116 24.640070 12.399305
 588  1      9.956116 24.640070 14.888327
 589  1      9.956116 28.160035 2.421848
 590  1      9.956116 28.160035 4.910870
 591  1      9.956116 28.160035 7.399876
 592  1      9.956116 28.160035 9.888898
 593  1      9.956116 28.160035 12.377920
 594  1      9.956116 28.160035 14.866926
 595  1      9.956116 31.680000 2.397192
 596  1      9.956116 31.680000 4.886214
 597  1      9.956116 31.680000 7.375220
 598  1      9.956116 31.680000 9.864242
 599  1      9.956116 31.680000 12.353264
 600  1      9.956116 31.680000 14.842270
 601  1      9.956116 35.199965 2.369638
 602  1      9.956116 35.199965 4.858645
 603  1      9.956116 35.199965 7.347667
 604  1      9.956116 35.199965 9.836688
 605  1      9.956116 35.199965 12.325695
 606  1      9.956116 35.199965 14.814717
 607  1      9.956116 38.719930 2.339860
 608  1      9.956116 38.719930 4.828881
 609  1      9.956116 38.719930 7.317903
 610  1      9.956116 38.719930 9.806910
 611  1      9.956116 38.719930 12.295931
 612  1      9.956116 38.719930 14.784953
 613  1      9.956116 42.240053 2.308901
 614  1      9.956116 42.240053 4.797923
 615  1      9.956116 42.240053 7.286945
 616  1      9.956116 42.240053 9.775951
 617  1      9.956116 42.240053 12.264973
 618  1      9.956116 42.240053 14.753995
 619  1      9.956116 45.760018 2.277958
 620  1      9.956116 45.760018 4.766980
 621  1      9.956116 45.760018 7.256001
 622  1      9.956116 45.760018 9.745008
 623  1      9.956116 45.760018 12.234030
 624  1      9.956116 45.760018 14.723051
 625  1      9.956116 49.279982 2.248224
 626  1      9.956116 49.279982 4.737231
 627  1      9.956116 49.279982 7.226253
 628  1      9.956116 49.279982 9.715274
 629  1      9.956116 49.279982 12.204281
 630  1      9.956116 49.279982 14.693303
 631  1      9.956116 52.799947 2.220641
 632  1      9.956116 52.799947 4.709648
 633  1      9.956116 52.799947 7.198669
 634  1      9.956116 52.799947 9.687691
 635  1      9.956116 52.799947 12.176698
 636  1      9.956116 52.799947 14.665719
 637  1      9.956116 56.320070 2.195850
 638  1      9.956116 56.320070 4.684857
 639  1      9.956116 56.320070 7.173879
 640  1      9.956116 56.320070 9.662900
 641  1      9.956116 56.320070 12.151907
 642  1      9.956116 56.320070 14.640929
 643  1      9.956116 59.840035 2.174136
 644  1      9.956116 59.840035 4.663158
 645  1      9.956116 59.840035 7.152165
 646  1      9.956116 59.840035 9.641186
 647  1      9.956116 59.840035 12.130208
 648  1      9.956116 59.840035 14.619215
 649  1      9.956116 63.360000 2.155469
 650  1      9.956116 63.360000 4.644490
 651  1      9.956116 63.360000 7.133512
 652  1      9.956116 63.360000 9.622519
 653  1      9.956116 63.360000 12.111540
 654  1      9.956116 63.360000 14.600562
 655  1      9.956116 66.879965 14.582835
 656  1      9.956116 66.879965 2.137757
 657  1      9.956116 66.879965 4.626763
 658  1      9.956116 66.879965 7.115785
 659  1      9.956116 66.879965 9.604807
 660  1      9.956116 66.879965 12.093813
 661  1      9.956116 70.399930 14.569454
 662  1      9.956116 70.399930 2.124376
 663  1      9.956116 70.399930 4.613382
 664  1      9.956116 70.399930 7.102404
 665  1      9.956116 70.399930 9.591426
 666  1      9.956116 70.399930 12.080432
 667  1      9.956116 73.920053 4.603556
 668  1      9.956116 73.920053 7.092563
 669  1      9.956116 73.920053 9.581584
 670  1      9.956116 73.920053 12.070606
 671  1      9.956116 73.920053 14.559613
 672  1      9.956116 73.920053 2.114534
 673  1      9.956116 77.440018 4.593819
 674  1      9.956116 77.440018 7.082840
 675  1      9.956116 77.440018 9.571847
 676  1      9.956116 77.440018 12.060869
 677  1      9.956116 77.440018 14.549890
 678  1      9.956116 77.440018 2.104797
 679  1      9.956116 80.959982 4.585276
 680  1      9.956116 80.959982 7.074298
 681  1      9.956116 80.959982 9.563320
 682  1      9.956116 80.959982 12.052326
 683  1      9.956116 80.959982 14.541348
 684  1      9.956116 80.959982 2.096270
 685  1      9.956116 84.479947 4.577570
 686  1      9.956116 84.479947 7.066592
 687  1      9.956116 84.479947 9.555599
 688  1      9.956116 84.479947 12.044620
 689  1      9.956116 84.479947 14.533642
 690  1      9.956116 84.479947 2.088549
 691  1      9.956116 88.000070 4.570357
 692  1      9.956116 88.000070 7.059364
 693  1      9.956116 88.000070 9.548386
 694  1      9.956116 88.000070 12.037407
 695  1      9.956116 88.000070 14.526414
 696  1      9.956116 88.000070 2.081336
 697  1      9.956116 91.520035 4.563353
 698  1      9.956116 91.520035 7.052375
 699  1      9.956116 91.520035 9.541396
 700  1      9.956116 91.520035 12.030403
 701  1      9.956116 91.520035 14.519425
 702  1      9.956116 91.520035 2.074346
 703  1      9.956116 95.040000 4.556364
 704  1      9.956116 95.040000 7.045386
 705  1      9.956116 95.040000 9.534407
 706  1      9.956116 95.040000 12.023414
 707  1      9.956116 95.040000 14.512436
 708  1      9.956116 95.040000 2.067357
 709  1      9.956116 98.559965 4.549226
 710  1      9.956116 98.559965 7.038247
 711  1      9.956116 98.559965 9.527254
 712  1      9.956116 98.559965 12.016276
 713  1      9.956116 98.559965 14.505297
 714  1      9.956116 98.559965 2.060204
 715  1      9.956116 102.079930 4.541833
 716  1      9.956116 102.079930 7.030855
 717  1      9.956116 102.079930 9.519876