# Converted from POSCAR to lammps format

1296 atoms
1 atom types

0.000000   29.868200   xlo xhi
0.000000   31.680000   ylo yhi
0.000000   14.934100   zlo zhi

  0.000000    0.000000    0.000000   xy xz yz

Atoms

   1  1      0.000000 0.000000 4.993099
   2  1      0.000000 0.000000 7.482116
   3  1      0.000000 0.000000 9.971132
   4  1      0.000000 0.000000 12.460149
   5  1      0.000000 0.000000 0.015066
   6  1      0.000000 0.000000 2.504082
   7  1      0.000000 3.520000 4.955583
   8  1      0.000000 3.520000 7.444599
   9  1      0.000000 3.520000 9.933616
  10  1      0.000000 3.520000 12.422633
  11  1      0.000000 3.520000 14.911649
  12  1      0.000000 3.520000 2.466566
  13  1      0.000000 7.040000 4.888548
  14  1      0.000000 7.040000 7.377564
  15  1      0.000000 7.040000 9.866581
  16  1      0.000000 7.040000 12.355598
  17  1      0.000000 7.040000 14.844614
  18  1      0.000000 7.040000 2.399531
  19  1      0.000000 10.560000 4.802716
  20  1      0.000000 10.560000 7.291733
  21  1      0.000000 10.560000 9.780749
  22  1      0.000000 10.560000 12.269766
  23  1      0.000000 10.560000 14.758783
  24  1      0.000000 10.560000 2.313700
  25  1      0.000000 14.080000 4.736463
  26  1      0.000000 14.080000 7.225479
  27  1      0.000000 14.080000 9.714496
  28  1      0.000000 14.080000 12.203513
  29  1      0.000000 14.080000 14.692529
  30  1      0.000000 14.080000 2.247446
  31  1      0.000000 17.600000 7.174742
  32  1      0.000000 17.600000 9.663759
  33  1      0.000000 17.600000 12.152775
  34  1      0.000000 17.600000 14.641792
  35  1      0.000000 17.600000 2.196709
  36  1      0.000000 17.600000 4.685725
  37  1      0.000000 21.120000 7.108482
  38  1      0.000000 21.120000 9.597498
  39  1      0.000000 21.120000 12.086515
  40  1      0.000000 21.120000 14.575532
  41  1      0.000000 21.120000 2.130448
  42  1      0.000000 21.120000 4.619465
  43  1      0.000000 24.640000 7.022646
  44  1      0.000000 24.640000 9.511663
  45  1      0.000000 24.640000 12.000680
  46  1      0.000000 24.640000 14.489696
  47  1      0.000000 24.640000 2.044613
  48  1      0.000000 24.640000 4.533630
  49  1      0.000000 28.160000 6.955601
  50  1      0.000000 28.160000 9.444618
  51  1      0.000000 28.160000 11.933634
  52  1      0.000000 28.160000 14.422651
  53  1      0.000000 28.160000 1.977568
  54  1      0.000000 28.160000 4.466584
  55  1      4.978033 0.000000 5.073953
  56  1      4.978033 0.000000 7.562970
  57  1      4.978033 0.000000 10.051987
  58  1      4.978033 0.000000 12.541003
  59  1      4.978033 0.000000 0.095920
  60  1      4.978033 0.000000 2.584937
  61  1      4.978033 3.520000 5.059458
  62  1      4.978033 3.520000 7.548475
  63  1      4.978033 3.520000 10.037491
  64  1      4.978033 3.520000 12.526508
  65  1      4.978033 3.520000 0.081425
  66  1      4.978033 3.520000 2.570441
  67  1      4.978033 7.040000 4.895172
  68  1      4.978033 7.040000 7.384189
  69  1      4.978033 7.040000 9.873206
  70  1      4.978033 7.040000 12.362222
  71  1      4.978033 7.040000 14.851239
  72  1      4.978033 7.040000 2.406156
  73  1      4.978033 10.560000 14.486088
  74  1      4.978033 10.560000 2.041005
  75  1      4.978033 10.560000 4.530022
  76  1      4.978033 10.560000 7.019038
  77  1      4.978033 10.560000 9.508055
  78  1      4.978033 10.560000 11.997072
  79  1      4.978033 14.080000 6.922210
  80  1      4.978033 14.080000 9.411227
  81  1      4.978033 14.080000 11.900244
  82  1      4.978033 14.080000 14.389260
  83  1      4.978033 14.080000 1.944177
  84  1      4.978033 14.080000 4.433194
  85  1      4.978033 17.600000 6.916902
  86  1      4.978033 17.600000 9.405919
  87  1      4.978033 17.600000 11.894935
  88  1      4.978033 17.600000 14.383952
  89  1      4.978033 17.600000 1.938869
  90  1      4.978033 17.600000 4.427885
  91  1      4.978033 21.120000 6.934252
  92  1      4.978033 21.120000 9.423269
  93  1      4.978033 21.120000 11.912285
  94  1      4.978033 21.120000 14.401302
  95  1      4.978033 21.120000 1.956219
  96  1      4.978033 21.120000 4.445236
  97  1      4.978033 24.640000 6.955900
  98  1      4.978033 24.640000 9.444917
  99  1      4.978033 24.640000 11.933933
 100  1      4.978033 24.640000 14.422950
 101  1      4.978033 24.640000 1.977867
 102  1      4.978033 24.640000 4.466884
 103  1      4.978033 28.160000 6.979548
 104  1      4.978033 28.160000 9.468564
 105  1      4.978033 28.160000 11.957581
 106  1      4.978033 28.160000 14.446597
 107  1      4.978033 28.160000 2.001514
 108  1      4.978033 28.160000 4.490531
 109  1      9.956067 0.000000 5.195242
 110  1      9.956067 0.000000 7.684259
 111  1      9.956067 0.000000 10.173275
 112  1      9.956067 0.000000 12.662292
 113  1      9.956067 0.000000 0.217209
 114  1      9.956067 0.000000 2.706225
 115  1      9.956067 3.520000 5.335461
 116  1      9.956067 3.520000 7.824478
 117  1      9.956067 3.520000 10.313494
 118  1      9.956067 3.520000 12.802511
 119  1      9.956067 3.520000 0.357428
 120  1      9.956067 3.520000 2.846444
 121  1      9.956067 7.040000 5.639814
 122  1      9.956067 7.040000 8.128831
 123  1      9.956067 7.040000 10.617848
 124  1      9.956067 7.040000 13.106864
 125  1      9.956067 7.040000 0.661781
 126  1      9.956067 7.040000 3.150798
 127  1      9.956067 10.560000 6.261992
 128  1      9.956067 10.560000 8.751009
 129  1      9.956067 10.560000 11.240025
 130  1      9.956067 10.560000 13.729042
 131  1      9.956067 10.560000 1.283959
 132  1      9.956067 10.560000 3.772975
 133  1      9.956067 14.080000 6.499050
 134  1      9.956067 14.080000 8.988067
 135  1      9.956067 14.080000 11.477083
 136  1      9.956067 14.080000 13.966100
 137  1      9.956067 14.080000 1.521017
 138  1      9.956067 14.080000 4.010033
 139  1      9.956067 17.600000 6.634887
 140  1      9.956067 17.600000 9.123903
 141  1      9.956067 17.600000 11.612920
 142  1      9.956067 17.600000 14.101937
 143  1      9.956067 17.600000 1.656853
 144  1      9.956067 17.600000 4.145870
 145  1      9.956067 21.120000 6.758555
 146  1      9.956067 21.120000 9.247572
 147  1      9.956067 21.120000 11.736588
 148  1      9.956067 21.120000 14.225605
 149  1      9.956067 21.120000 1.780522
 150  1      9.956067 21.120000 4.269538
 151  1      9.956067 24.640000 6.882568
 152  1      9.956067 24.640000 9.371585
 153  1      9.956067 24.640000 11.860601
 154  1      9.956067 24.640000 14.349618
 155  1      9.956067 24.640000 1.904535
 156  1      9.956067 24.640000 4.393551
 157  1      9.956067 28.160000 7.002730
 158  1      9.956067 28.160000 9.491747
 159  1      9.956067 28.160000 11.980764
 160  1      9.956067 28.160000 14.469780
 161  1      9.956067 28.160000 2.024697
 162  1      9.956067 28.160000 4.513714
 163  1      14.934100 0.000000 0.303758
 164  1      14.934100 0.000000 2.792775
 165  1      14.934100 0.000000 5.281792
 166  1      14.934100 0.000000 7.770808
 167  1      14.934100 0.000000 10.259825
 168  1      14.934100 0.000000 12.748842
 169  1      14.934100 3.520000 5.477247
 170  1      14.934100 3.520000 7.966263
 171  1      14.934100 3.520000 10.455280
 172  1      14.934100 3.520000 12.944297
 173  1      14.934100 3.520000 0.499213
 174  1      14.934100 3.520000 2.988230
 175  1      14.934100 7.040000 5.697856
 176  1      14.934100 7.040000 8.186872
 177  1      14.934100 7.040000 10.675889
 178  1      14.934100 7.040000 13.164906
 179  1      14.934100 7.040000 0.719822
 180  1      14.934100 7.040000 3.208839
 181  1      14.934100 10.560000 5.944851
 182  1      14.934100 10.560000 8.433867
 183  1      14.934100 10.560000 10.922884
 184  1      14.934100 10.560000 13.411900
 185  1      14.934100 10.560000 0.966817
 186  1      14.934100 10.560000 3.455834
 187  1      14.934100 14.080000 6.162070
 188  1      14.934100 14.080000 8.651086
 189  1      14.934100 14.080000 11.140103
 190  1      14.934100 14.080000 13.629120
 191  1      14.934100 14.080000 1.184036
 192  1      14.934100 14.080000 3.673053
 193  1      14.934100 17.600000 6.356645
 194  1      14.934100 17.600000 8.845661
 195  1      14.934100 17.600000 11.334678
 196  1      14.934100 17.600000 13.823695
 197  1      14.934100 17.600000 1.378612
 198  1      14.934100 17.600000 3.867628
 199  1      14.934100 21.120000 6.573857
 200  1      14.934100 21.120000 9.062874
 201  1      14.934100 21.120000 11.551890
 202  1      14.934100 21.120000 14.040907
 203  1      14.934100 21.120000 1.595824
 204  1      14.934100 21.120000 4.084840
 205  1      14.934100 24.640000 6.820841
 206  1      14.934100 24.640000 9.309858
 207  1      14.934100 24.640000 11.798875
 208  1      14.934100 24.640000 14.287891
 209  1      14.934100 24.640000 1.842808
 210  1      14.934100 24.640000 4.331825
 211  1      14.934100 28.160000 7.041433
 212  1      14.934100 28.160000 9.530449
 213  1      14.934100 28.160000 12.019466
 214  1      14.934100 28.160000 14.508483
 215  1      14.934100 28.160000 2.063399
 216  1      14.934100 28.160000 4.552416
 217  1      19.912133 0.000000 5.398476
 218  1      19.912133 0.000000 7.887493
 219  1      19.912133 0.000000 10.376509
 220  1      19.912133 0.000000 12.865526
 221  1      19.912133 0.000000 0.420443
 222  1      19.912133 0.000000 2.909460
 223  1      19.912133 3.520000 5.515956
 224  1      19.912133 3.520000 8.004973
 225  1      19.912133 3.520000 10.493989
 226  1      19.912133 3.520000 12.983006
 227  1      19.912133 3.520000 0.537923
 228  1      19.912133 3.520000 3.026940
 229  1      19.912133 7.040000 5.636136
 230  1      19.912133 7.040000 8.125153
 231  1      19.912133 7.040000 10.614169
 232  1      19.912133 7.040000 13.103186
 233  1      19.912133 7.040000 0.658103
 234  1      19.912133 7.040000 3.147119
 235  1      19.912133 10.560000 5.760160
 236  1      19.912133 10.560000 8.249176
 237  1      19.912133 10.560000 10.738193
 238  1      19.912133 10.560000 13.227210
 239  1      19.912133 10.560000 0.782126
 240  1      19.912133 10.560000 3.271143
 241  1      19.912133 14.080000 5.883835
 242  1      19.912133 14.080000 8.372852
 243  1      19.912133 14.080000 10.861868
 244  1      19.912133 14.080000 13.350885
 245  1      19.912133 14.080000 0.905802
 246  1      19.912133 14.080000 3.394818
 247  1      19.912133 17.600000 6.019672
 248  1      19.912133 17.600000 8.508688
 249  1      19.912133 17.600000 10.997705
 250  1      19.912133 17.600000 13.486722
 251  1      19.912133 17.600000 1.041638
 252  1      19.912133 17.600000 3.530655
 253  1      19.912133 21.120000 6.256723
 254  1      19.912133 21.120000 8.745739
 255  1      19.912133 21.120000 11.234756
 256  1      19.912133 21.120000 13.723772
 257  1      19.912133 21.120000 1.278689
 258  1      19.912133 21.120000 3.767706
 259  1      19.912133 24.640000 6.878886
 260  1      19.912133 24.640000 9.367903
 261  1      19.912133 24.640000 11.856919
 262  1      19.912133 24.640000 14.345936
 263  1      19.912133 24.640000 1.900853
 264  1      19.912133 24.640000 4.389869
 265  1      19.912133 28.160000 7.183222
 266  1      19.912133 28.160000 9.672238
 267  1      19.912133 28.160000 12.161255
 268  1      19.912133 28.160000 14.650272
 269  1      19.912133 28.160000 2.205188
 270  1      19.912133 28.160000 4.694205
 271  1      24.890166 0.000000 5.519772
 272  1      24.890166 0.000000 8.008788
 273  1      24.890166 0.000000 10.497805
 274  1      24.890166 0.000000 12.986822
 275  1      24.890166 0.000000 0.541739
 276  1      24.890166 0.000000 3.030755
 277  1      24.890166 3.520000 5.539160
 278  1      24.890166 3.520000 8.028177
 279  1      24.890166 3.520000 10.517193
 280  1      24.890166 3.520000 13.006210
 281  1      24.890166 3.520000 0.561127
 282  1      24.890166 3.520000 3.050143
 283  1      24.890166 7.040000 5.562821
 284  1      24.890166 7.040000 8.051838
 285  1      24.890166 7.040000 10.540855
 286  1      24.890166 7.040000 13.029871
 287  1      24.890166 7.040000 0.584788
 288  1      24.890166 7.040000 3.073805
 289  1      24.890166 10.560000 5.584484
 290  1      24.890166 10.560000 8.073500
 291  1      24.890166 10.560000 10.562517
 292  1      24.890166 10.560000 13.051533
 293  1      24.890166 10.560000 0.606450
 294  1      24.890166 10.560000 3.095467
 295  1      24.890166 14.080000 5.601837
 296  1      24.890166 14.080000 8.090854
 297  1      24.890166 14.080000 10.579870
 298  1      24.890166 14.080000 13.068887
 299  1      24.890166 14.080000 0.623804
 300  1      24.890166 14.080000 3.112820
 301  1      24.890166 17.600000 5.596529
 302  1      24.890166 17.600000 8.085546
 303  1      24.890166 17.600000 10.574562
 304  1      24.890166 17.600000 13.063579
 305  1      24.890166 17.600000 0.618496
 306  1      24.890166 17.600000 3.107512
 307  1      24.890166 21.120000 0.491906
 308  1      24.890166 21.120000 2.980923
 309  1      24.890166 21.120000 5.469939
 310  1      24.890166 21.120000 7.958956
 311  1      24.890166 21.120000 10.447972
 312  1      24.890166 21.120000 12.936989
 313  1      24.890166 24.640000 7.623546
 314  1      24.890166 24.640000 10.112562
 315  1      24.890166 24.640000 12.601579
 316  1      24.890166 24.640000 0.156496
 317  1      24.890166 24.640000 2.645512
 318  1      24.890166 24.640000 5.134529
 319  1      24.890166 28.160000 7.459243
 320  1      24.890166 28.160000 9.948259
 321  1      24.890166 28.160000 12.437276
 322  1      24.890166 28.160000 14.926292
 323  1      24.890166 28.160000 2.481209
 324  1      24.890166 28.160000 4.970226
 325  1      1.244510 1.760000 6.237700
 326  1      1.244510 1.760000 8.726717
 327  1      1.244510 1.760000 11.215734
 328  1      1.244510 1.760000 13.704750
 329  1      1.244510 1.760000 1.259667
 330  1      1.244510 1.760000 3.748684
 331  1      1.244510 5.280000 6.174252
 332  1      1.244510 5.280000 8.663269
 333  1      1.244510 5.280000 11.152286
 334  1      1.244510 5.280000 13.641302
 335  1      1.244510 5.280000 1.196219
 336  1      1.244510 5.280000 3.685236
 337  1      1.244510 8.800000 6.059110
 338  1      1.244510 8.800000 8.548126
 339  1      1.244510 8.800000 11.037143
 340  1      1.244510 8.800000 13.526160
 341  1      1.244510 8.800000 1.081076
 342  1      1.244510 8.800000 3.570093
 343  1      1.244510 12.320000 5.950528
 344  1      1.244510 12.320000 8.439545
 345  1      1.244510 12.320000 10.928562
 346  1      1.244510 12.320000 13.417578
 347  1      1.244510 12.320000 0.972495
 348  1      1.244510 12.320000 3.461512
 349  1      1.244510 15.840000 8.377604
 350  1      1.244510 15.840000 10.866620
 351  1      1.244510 15.840000 13.355637
 352  1      1.244510 15.840000 0.910554
 353  1      1.244510 15.840000 3.399570
 354  1      1.244510 15.840000 5.888587
 355  1      1.244510 19.360000 8.333322
 356  1      1.244510 19.360000 10.822339
 357  1      1.244510 19.360000 13.311355
 358  1      1.244510 19.360000 0.866272
 359  1      1.244510 19.360000 3.355289
 360  1      1.244510 19.360000 5.844305
 361  1      1.244510 22.880000 8.280290
 362  1      1.244510 22.880000 10.769306
 363  1      1.244510 22.880000 13.258323
 364  1      1.244510 22.880000 0.813240
 365  1      1.244510 22.880000 3.302256
 366  1      1.244510 22.880000 5.791273
 367  1      1.244510 26.400000 8.227880
 368  1      1.244510 26.400000 10.716897
 369  1      1.244510 26.400000 13.205914
 370  1      1.244510 26.400000 0.760830
 371  1      1.244510 26.400000 3.249847
 372  1      1.244510 26.400000 5.738864
 373  1      1.244510 29.920000 8.193212
 374  1      1.244510 29.920000 10.682228
 375  1      1.244510 29.920000 13.171245
 376  1      1.244510 29.920000 0.726162
 377  1      1.244510 29.920000 3.215179
 378  1      1.244510 29.920000 5.704195
 379  1      6.222543 1.760000 6.360724
 380  1      6.222543 1.760000 8.849741
 381  1      6.222543 1.760000 11.338758
 382  1      6.222543 1.760000 13.827774
 383  1      6.222543 1.760000 1.382691
 384  1      6.222543 1.760000 3.871708
 385  1      6.222543 5.280000 6.333550
 386  1      6.222543 5.280000 8.822567
 387  1      6.222543 5.280000 11.311583
 388  1      6.222543 5.280000 13.800600
 389  1      6.222543 5.280000 1.355517
 390  1      6.222543 5.280000 3.844533
 391  1      6.222543 8.800000 0.892003
 392  1      6.222543 8.800000 3.381020
 393  1      6.222543 8.800000 5.870036
 394  1      6.222543 8.800000 8.359053
 395  1      6.222543 8.800000 10.848070
 396  1      6.222543 8.800000 13.337086
 397  1      6.222543 12.320000 8.079111
 398  1      6.222543 12.320000 10.568128
 399  1      6.222543 12.320000 13.057144
 400  1      6.222543 12.320000 0.612061
 401  1      6.222543 12.320000 3.101078
 402  1      6.222543 12.320000 5.590094
 403  1      6.222543 15.840000 8.076059
 404  1      6.222543 15.840000 10.565076
 405  1      6.222543 15.840000 13.054092
 406  1      6.222543 15.840000 0.609009
 407  1      6.222543 15.840000 3.098026
 408  1      6.222543 15.840000 5.587043
 409  1      6.222543 19.360000 8.113079
 410  1      6.222543 19.360000 10.602096
 411  1      6.222543 19.360000 13.091112
 412  1      6.222543 19.360000 0.646029
 413  1      6.222543 19.360000 3.135046
 414  1      6.222543 19.360000 5.624062
 415  1      6.222543 22.880000 8.158466
 416  1      6.222543 22.880000 10.647483
 417  1      6.222543 22.880000 13.136499
 418  1      6.222543 22.880000 0.691416
 419  1      6.222543 22.880000 3.180433
 420  1      6.222543 22.880000 5.669449
 421  1      6.222543 26.400000 8.205704
 422  1      6.222543 26.400000 10.694721
 423  1      6.222543 26.400000 13.183738
 424  1      6.222543 26.400000 0.738654
 425  1      6.222543 26.400000 3.227671
 426  1      6.222543 26.400000 5.716688
 427  1      6.222543 29.920000 8.251577
 428  1      6.222543 29.920000 10.740594
 429  1      6.222543 29.920000 13.229610
 430  1      6.222543 29.920000 0.784527
 431  1      6.222543 29.920000 3.273544
 432  1      6.222543 29.920000 5.762560
 433  1      11.200577 1.760000 6.544352
 434  1      11.200577 1.760000 9.033369
 435  1      11.200577 1.760000 11.522386
 436  1      11.200577 1.760000 14.011402
 437  1      11.200577 1.760000 1.566319
 438  1      11.200577 1.760000 4.055336
 439  1      11.200577 5.280000 6.756865
 440  1      11.200577 5.280000 9.245882
 441  1      11.200577 5.280000 11.734899
 442  1      11.200577 5.280000 14.223915
 443  1      11.200577 5.280000 1.778832
 444  1      11.200577 5.280000 4.267849
 445  1      11.200577 8.800000 7.172637
 446  1      11.200577 8.800000 9.661654
 447  1      11.200577 8.800000 12.150670
 448  1      11.200577 8.800000 14.639687
 449  1      11.200577 8.800000 2.194604
 450  1      11.200577 8.800000 4.683620
 451  1      11.200577 12.320000 7.538964
 452  1      11.200577 12.320000 10.027980
 453  1      11.200577 12.320000 12.516997
 454  1      11.200577 12.320000 0.071914
 455  1      11.200577 12.320000 2.560930
 456  1      11.200577 12.320000 5.049947
 457  1      11.200577 15.840000 7.732099
 458  1      11.200577 15.840000 10.221116
 459  1      11.200577 15.840000 12.710132
 460  1      11.200577 15.840000 0.265049
 461  1      11.200577 15.840000 2.754066
 462  1      11.200577 15.840000 5.243082
 463  1      11.200577 19.360000 7.883649
 464  1      11.200577 19.360000 10.372666
 465  1      11.200577 19.360000 12.861682
 466  1      11.200577 19.360000 0.416599
 467  1      11.200577 19.360000 2.905616
 468  1      11.200577 19.360000 5.394632
 469  1      11.200577 22.880000 8.034164
 470  1      11.200577 22.880000 10.523181
 471  1      11.200577 22.880000 13.012197
 472  1      11.200577 22.880000 0.567114
 473  1      11.200577 22.880000 3.056131
 474  1      11.200577 22.880000 5.545148
 475  1      11.200577 26.400000 8.183208
 476  1      11.200577 26.400000 10.672225
 477  1      11.200577 26.400000 13.161241
 478  1      11.200577 26.400000 0.716158
 479  1      11.200577 26.400000 3.205175
 480  1      11.200577 26.400000 5.694191
 481  1      11.200577 29.920000 8.323564
 482  1      11.200577 29.920000 10.812581
 483  1      11.200577 29.920000 13.301598
 484  1      11.200577 29.920000 0.856515
 485  1      11.200577 29.920000 3.345531
 486  1      11.200577 29.920000 5.834548
 487  1      16.178610 1.760000 6.648210
 488  1      16.178610 1.760000 9.137227
 489  1      16.178610 1.760000 11.626243
 490  1      16.178610 1.760000 14.115260
 491  1      16.178610 1.760000 1.670177
 492  1      16.178610 1.760000 4.159193
 493  1      16.178610 5.280000 6.828828
 494  1      16.178610 5.280000 9.317845
 495  1      16.178610 5.280000 11.806861
 496  1      16.178610 5.280000 14.295878
 497  1      16.178610 5.280000 1.850795
 498  1      16.178610 5.280000 4.339812
 499  1      16.178610 8.800000 7.035403
 500  1      16.178610 8.800000 9.524420
 501  1      16.178610 8.800000 12.013436
 502  1      16.178610 8.800000 14.502453
 503  1      16.178610 8.800000 2.057370
 504  1      16.178610 8.800000 4.546386
 505  1      16.178610 12.320000 7.241154
 506  1      16.178610 12.320000 9.730171
 507  1      16.178610 12.320000 12.219187
 508  1      16.178610 12.320000 14.708204
 509  1      16.178610 12.320000 2.263121
 510  1      16.178610 12.320000 4.752137
 511  1      16.178610 15.840000 7.430252
 512  1      16.178610 15.840000 9.919268
 513  1      16.178610 15.840000 12.408285
 514  1      16.178610 15.840000 14.897302
 515  1      16.178610 15.840000 2.452219
 516  1      16.178610 15.840000 4.941235
 517  1      16.178610 19.360000 7.637295
 518  1      16.178610 19.360000 10.126311
 519  1      16.178610 19.360000 12.615328
 520  1      16.178610 19.360000 0.170245
 521  1      16.178610 19.360000 2.659261
 522  1      16.178610 19.360000 5.148278
 523  1      16.178610 22.880000 7.908982
 524  1      16.178610 22.880000 10.397999
 525  1      16.178610 22.880000 12.887016
 526  1      16.178610 22.880000 0.441932
 527  1      16.178610 22.880000 2.930949
 528  1      16.178610 22.880000 5.419966
 529  1      16.178610 26.400000 8.191374
 530  1      16.178610 26.400000 10.680391
 531  1      16.178610 26.400000 13.169408
 532  1      16.178610 26.400000 0.724324
 533  1      16.178610 26.400000 3.213341
 534  1      16.178610 26.400000 5.702358
 535  1      16.178610 29.920000 0.920135
 536  1      16.178610 29.920000 3.409152
 537  1      16.178610 29.920000 5.898168
 538  1      16.178610 29.920000 8.387185
 539  1      16.178610 29.920000 10.876202
 540  1      16.178610 29.920000 13.365218
 541  1      21.156643 1.760000 6.720416
 542  1      21.156643 1.760000 9.209432
 543  1      21.156643 1.760000 11.698449
 544  1      21.156643 1.760000 14.187466
 545  1      21.156643 1.760000 1.742382
 546  1      21.156643 1.760000 4.231399
 547  1      21.156643 5.280000 6.814305
 548  1      21.156643 5.280000 9.303321
 549  1      21.156643 5.280000 11.792338
 550  1      21.156643 5.280000 14.281355
 551  1      21.156643 5.280000 1.836271
 552  1      21.156643 5.280000 4.325288
 553  1      21.156643 8.800000 6.911436
 554  1      21.156643 8.800000 9.400452
 555  1      21.156643 8.800000 11.889469
 556  1      21.156643 8.800000 14.378485
 557  1      21.156643 8.800000 1.933402
 558  1      21.156643 8.800000 4.422419
 559  1      21.156643 12.320000 7.008883
 560  1      21.156643 12.320000 9.497900
 561  1      21.156643 12.320000 11.986916
 562  1      21.156643 12.320000 14.475933
 563  1      21.156643 12.320000 2.030850
 564  1      21.156643 12.320000 4.519867
 565  1      21.156643 15.840000 7.105972
 566  1      21.156643 15.840000 9.594988
 567  1      21.156643 15.840000 12.084005
 568  1      21.156643 15.840000 14.573022
 569  1      21.156643 15.840000 2.127939
 570  1      21.156643 15.840000 4.616955
 571  1      21.156643 19.360000 7.219552
 572  1      21.156643 19.360000 9.708568
 573  1      21.156643 19.360000 12.197585
 574  1      21.156643 19.360000 14.686602
 575  1      21.156643 19.360000 2.241518
 576  1      21.156643 19.360000 4.730535
 577  1      21.156643 22.880000 7.645278
 578  1      21.156643 22.880000 10.134295
 579  1      21.156643 22.880000 12.623311
 580  1      21.156643 22.880000 0.178228
 581  1      21.156643 22.880000 2.667245
 582  1      21.156643 22.880000 5.156261
 583  1      21.156643 26.400000 8.425549
 584  1      21.156643 26.400000 10.914566
 585  1      21.156643 26.400000 13.403583
 586  1      21.156643 26.400000 0.958500
 587  1      21.156643 26.400000 3.447516
 588  1      21.156643 26.400000 5.936533
 589  1      21.156643 29.920000 8.550735
 590  1      21.156643 29.920000 11.039751
 591  1      21.156643 29.920000 13.528768
 592  1      21.156643 29.920000 1.083685
 593  1      21.156643 29.920000 3.572701
 594  1      21.156643 29.920000 6.061718
 595  1      26.134676 1.760000 6.787377
 596  1      26.134676 1.760000 9.276393
 597  1      26.134676 1.760000 11.765410
 598  1      26.134676 1.760000 14.254427
 599  1      26.134676 1.760000 1.809343
 600  1      26.134676 1.760000 4.298360
 601  1      26.134676 5.280000 6.789457
 602  1      26.134676 5.280000 9.278474
 603  1      26.134676 5.280000 11.767490
 604  1      26.134676 5.280000 14.256507
 605  1      26.134676 5.280000 1.811424
 606  1      26.134676 5.280000 4.300440
 607  1      26.134676 8.800000 6.787891
 608  1      26.134676 8.800000 9.276907
 609  1      26.134676 8.800000 11.765924
 610  1      26.134676 8.800000 14.254940
 611  1      26.134676 8.800000 1.809857
 612  1      26.134676 8.800000 4.298874
 613  1      26.134676 12.320000 6.783617
 614  1      26.134676 12.320000 9.272634
 615  1      26.134676 12.320000 11.761651
 616  1      26.134676 12.320000 14.250667
 617  1      26.134676 12.320000 1.805584
 618  1      26.134676 12.320000 4.294601
 619  1      26.134676 15.840000 6.771600
 620  1      26.134676 15.840000 9.260617
 621  1      26.134676 15.840000 11.749633
 622  1      26.134676 15.840000 14.238650
 623  1      26.134676 15.840000 1.793567
 624  1      26.134676 15.840000 4.282583
 625  1      26.134676 19.360000 1.720844
 626  1      26.134676 19.360000 4.209860
 627  1      26.134676 19.360000 6.698877
 628  1      26.134676 19.360000 9.187893
 629  1      26.134676 19.360000 11.676910
 630  1      26.134676 19.360000 14.165927
 631  1      26.134676 22.880000 9.015375
 632  1      26.134676 22.880000 11.504391
 633  1      26.134676 22.880000 13.993408
 634  1      26.134676 22.880000 1.548325
 635  1      26.134676 22.880000 4.037341
 636  1      26.134676 22.880000 6.526358
 637  1      26.134676 26.400000 8.798247
 638  1      26.134676 26.400000 11.287264
 639  1      26.134676 26.400000 13.776280
 640  1      26.134676 26.400000 1.331197
 641  1      26.134676 26.400000 3.820214
 642  1      26.134676 26.400000 6.309230
 643  1      26.134676 29.920000 8.722564
 644  1      26.134676 29.920000 11.211580
 645  1      26.134676 29.920000 13.700597
 646  1      26.134676 29.920000 1.255514
 647  1      26.134676 29.920000 3.744530
 648  1      26.134676 29.920000 6.233547
 649  1      2.489017 0.000000 5.028341
 650  1      2.489017 0.000000 7.517358
 651  1      2.489017 0.000000 10.006374
 652  1      2.489017 0.000000 12.495391
 653  1      2.489017 0.000000 0.050308
 654  1      2.489017 0.000000 2.539324
 655  1      2.489017 3.520000 4.987308
 656  1      2.489017 3.520000 7.476325
 657  1      2.489017 3.520000 9.965342
 658  1      2.489017 3.520000 12.454358
 659  1      2.489017 3.520000 0.009275
 660  1      2.489017 3.520000 2.498292
 661  1      2.489017 7.040000 4.870026
 662  1      2.489017 7.040000 7.359042
 663  1      2.489017 7.040000 9.848059
 664  1      2.489017 7.040000 12.337076
 665  1      2.489017 7.040000 14.826092
 666  1      2.489017 7.040000 2.381009
 667  1      2.489017 10.560000 4.700267
 668  1      2.489017 10.560000 7.189283
 669  1      2.489017 10.560000 9.678300
 670  1      2.489017 10.560000 12.167316
 671  1      2.489017 10.560000 14.656333
 672  1      2.489017 10.560000 2.211250
 673  1      2.489017 14.080000 14.540821
 674  1      2.489017 14.080000 2.095738
 675  1      2.489017 14.080000 4.584754
 676  1      2.489017 14.080000 7.073771
 677  1      2.489017 14.080000 9.562788
 678  1      2.489017 14.080000 12.051804
 679  1      2.489017 17.600000 7.047864
 680  1      2.489017 17.600000 9.536880
 681  1      2.489017 17.600000 12.025897
 682  1      2.489017 17.600000 14.514914
 683  1      2.489017 17.600000 2.069830
 684  1      2.489017 17.600000 4.558847
 685  1      2.489017 21.120000 7.020232
 686  1      2.489017 21.120000 9.509248
 687  1      2.489017 21.120000 11.998265
 688  1      2.489017 21.120000 14.487282
 689  1      2.489017 21.120000 2.042198
 690  1      2.489017 21.120000 4.531215
 691  1      2.489017 24.640000 6.991491
 692  1      2.489017 24.640000 9.480508
 693  1      2.489017 24.640000 11.969524
 694  1      2.489017 24.640000 14.458541
 695  1      2.489017 24.640000 2.013458
 696  1      2.489017 24.640000 4.502474
 697  1      2.489017 28.160000 6.969804
 698  1      2.489017 28.160000 9.458821
 699  1      2.489017 28.160000 11.947837
 700  1      2.489017 28.160000 14.436854
 701  1      2.489017 28.160000 1.991771
 702  1      2.489017 28.160000 4.480788
 703  1      7.467050 0.000000 5.132607
 704  1      7.467050 0.000000 7.621624
 705  1      7.467050 0.000000 10.110640
 706  1      7.467050 0.000000 12.599657
 707  1      7.467050 0.000000 0.154574
 708  1      7.467050 0.000000 2.643590
 709  1      7.467050 3.520000 5.189962
 710  1      7.467050 3.520000 7.678979
 711  1      7.467050 3.520000 10.167995
 712  1      7.467050 3.520000 12.657012
 713  1      7.467050 3.520000 0.211929
 714  1      7.467050 3.520000 2.700945
 715  1      7.467050 7.040000 0.179182
 716  1      7.467050 7.040000 2.668199
 717  1      7.467050 7.040000 5.157215