# Converted from POSCAR to lammps format

600 atoms
1 atom types

0.000000   42.426406   xlo xhi
0.000000   36.742346   ylo yhi
0.000000    5.196152   zlo zhi

  0.000000    0.000000    0.000000   xy xz yz

Atoms

   1  1      0.000000 0.000000 2.600259
   2  1      21.213203 0.000000 0.223759
   3  1      2.121320 3.674235 2.563652
   4  1      23.334523 3.674235 3.000534
   5  1      4.242641 7.348469 2.499313
   6  1      25.455844 7.348469 3.158289
   7  1      6.363961 11.022704 4.956835
   8  1      27.577164 11.022704 3.267363
   9  1      8.485281 14.696938 4.704944
  10  1      29.698484 14.696938 3.311589
  11  1      10.606602 18.371173 4.499197
  12  1      31.819805 18.371173 3.272438
  13  1      12.727922 22.045408 4.428020
  14  1      33.941125 22.045408 3.094543
  15  1      14.849242 25.719642 4.447282
  16  1      36.062445 25.719642 0.205838
  17  1      16.970562 29.393877 4.533700
  18  1      38.183765 29.393877 0.031253
  19  1      19.091883 33.068111 4.673437
  20  1      40.305086 33.068111 5.153262
  21  1      4.242641 0.000000 2.609329
  22  1      25.455844 0.000000 0.284404
  23  1      6.363961 3.674235 2.588845
  24  1      27.577164 3.674235 3.029143
  25  1      8.485281 7.348469 2.542357
  26  1      29.698484 7.348469 3.126501
  27  1      10.606602 11.022704 4.898880
  28  1      31.819805 11.022704 3.168940
  29  1      12.727922 14.696938 4.318775
  30  1      33.941125 14.696938 3.147300
  31  1      14.849242 18.371173 4.218640
  32  1      36.062445 18.371173 3.050138
  33  1      16.970562 22.045408 4.245508
  34  1      38.183765 22.045408 0.288102
  35  1      19.091883 25.719642 4.340845
  36  1      40.305086 25.719642 0.123692
  37  1      0.000000 29.393877 4.720187
  38  1      21.213203 29.393877 4.506181
  39  1      2.121320 33.068111 4.661855
  40  1      23.334523 33.068111 4.714612
  41  1      8.485281 0.000000 2.637320
  42  1      29.698484 0.000000 2.958799
  43  1      10.606602 3.674235 2.678890
  44  1      31.819805 3.674235 3.048455
  45  1      12.727922 7.348469 0.192277
  46  1      33.941125 7.348469 3.086729
  47  1      14.849242 11.022704 3.496207
  48  1      36.062445 11.022704 3.074252
  49  1      16.970562 14.696938 3.865873
  50  1      38.183765 14.696938 3.007185
  51  1      19.091883 18.371173 3.968114
  52  1      40.305086 18.371173 0.293392
  53  1      0.000000 22.045408 4.863147
  54  1      21.213203 22.045408 4.070745
  55  1      2.121320 25.719642 4.748710
  56  1      23.334523 25.719642 4.241423
  57  1      4.242641 29.393877 4.678488
  58  1      25.455844 29.393877 4.535822
  59  1      6.363961 33.068111 4.651878
  60  1      27.577164 33.068111 4.819194
  61  1      12.727922 0.000000 2.694234
  62  1      33.941125 0.000000 3.032374
  63  1      14.849242 3.674235 0.231474
  64  1      36.062445 3.674235 3.057002
  65  1      16.970562 7.348469 0.496128
  66  1      38.183765 7.348469 3.045199
  67  1      19.091883 11.022704 3.438753
  68  1      40.305086 11.022704 2.990245
  69  1      0.000000 14.696938 2.398699
  70  1      21.213203 14.696938 3.644775
  71  1      2.121320 18.371173 4.865429
  72  1      23.334523 18.371173 3.760385
  73  1      4.242641 22.045408 4.741754
  74  1      25.455844 22.045408 3.866718
  75  1      6.363961 25.719642 4.659184
  76  1      27.577164 25.719642 4.118745
  77  1      8.485281 29.393877 4.629019
  78  1      29.698484 29.393877 4.797391
  79  1      10.606601 33.068111 4.648828
  80  1      31.819804 33.068111 4.991384
  81  1      16.970562 0.000000 2.762342
  82  1      38.183765 0.000000 3.074537
  83  1      19.091883 3.674235 0.347329
  84  1      40.305086 3.674235 3.054603
  85  1      0.000000 7.348469 2.518424
  86  1      21.213203 7.348469 3.166468
  87  1      2.121320 11.022704 2.425812
  88  1      23.334523 11.022704 3.359217
  89  1      4.242641 14.696938 4.877423
  90  1      25.455844 14.696938 3.479497
  91  1      6.363961 18.371173 4.714387
  92  1      27.577164 18.371173 3.533776
  93  1      8.485281 22.045408 4.600024
  94  1      29.698484 22.045408 3.505477
  95  1      10.606602 25.719642 4.557063
  96  1      31.819805 25.719642 0.370725
  97  1      12.727922 29.393877 4.578664
  98  1      33.941125 29.393877 5.159483
  99  1      14.849242 33.068111 4.656148
 100  1      36.062445 33.068111 5.113835
 101  1      2.121320 1.224733 3.457798
 102  1      23.334523 1.224733 1.168106
 103  1      4.242641 4.898967 3.417272
 104  1      25.455844 4.898967 3.928218
 105  1      6.363961 8.573202 3.330545
 106  1      27.577164 8.573202 4.050257
 107  1      8.485281 12.247436 0.508704
 108  1      29.698484 12.247436 4.115523
 109  1      10.606602 15.921671 0.189775
 110  1      31.819805 15.921671 4.110667
 111  1      12.727922 19.595906 0.052389
 112  1      33.941125 19.595906 4.009754
 113  1      14.849242 23.270140 0.043340
 114  1      36.062445 23.270140 1.195269
 115  1      16.970562 26.944375 0.110812
 116  1      38.183765 26.944375 0.982513
 117  1      19.091883 30.618609 0.240945
 118  1      40.305086 30.618609 0.866947
 119  1      21.213203 34.292844 0.412763
 120  1      -0.000000 34.292844 0.810903
 121  1      6.363961 1.224733 3.479140
 122  1      27.577164 1.224733 3.821885
 123  1      8.485281 4.898967 3.473408
 124  1      29.698484 4.898967 3.934048
 125  1      10.606602 8.573202 0.836353
 126  1      31.819805 8.573202 3.993709
 127  1      12.727922 12.247436 0.050109
 128  1      33.941125 12.247436 3.996759
 129  1      14.849242 15.921671 4.988148
 130  1      36.062445 15.921671 3.935481
 131  1      16.970562 19.595906 5.007702
 132  1      38.183765 19.595906 1.211568
 133  1      19.091883 23.270140 5.085006
 134  1      40.305086 23.270140 1.055130
 135  1      0.000000 26.944375 0.435343
 136  1      21.213203 26.944375 0.034715
 137  1      2.121320 30.618609 0.356841
 138  1      23.334523 30.618609 0.254506
 139  1      4.242641 34.292844 0.319308
 140  1      25.455844 34.292844 0.480138
 141  1      10.606602 1.224733 3.537500
 142  1      31.819805 1.224733 3.879679
 143  1      12.727922 4.898967 1.036026
 144  1      33.941125 4.898967 3.930522
 145  1      14.849242 8.573202 1.333549
 146  1      36.062445 8.573202 3.935126
 147  1      16.970562 12.247436 4.491333
 148  1      38.183765 12.247436 3.890301
 149  1      19.091883 15.921671 4.689611
 150  1      40.305086 15.921671 3.795811
 151  1      -0.000000 19.595906 0.579356
 152  1      21.213203 19.595906 4.797535
 153  1      2.121320 23.270140 0.454452
 154  1      23.334523 23.270140 4.926641
 155  1      4.242641 26.944375 0.365504
 156  1      25.455844 26.944375 5.180727
 157  1      6.363961 30.618609 0.323391
 158  1      27.577164 30.618609 0.372232
 159  1      8.485281 34.292844 0.324235
 160  1      29.698484 34.292844 0.599823
 161  1      14.849242 1.224733 3.626888
 162  1      36.062445 1.224733 3.921662
 163  1      16.970562 4.898967 1.218754
 164  1      38.183765 4.898967 3.918774
 165  1      19.091883 8.573202 4.101233
 166  1      40.305086 8.573202 3.880726
 167  1      0.000000 12.247436 3.307288
 168  1      21.213203 12.247436 4.349823
 169  1      2.121320 15.921671 0.582981
 170  1      23.334523 15.921671 4.493411
 171  1      4.242641 19.595906 0.444472
 172  1      25.455844 19.595906 4.582614
 173  1      6.363961 23.270140 0.337575
 174  1      27.577164 23.270140 4.674744
 175  1      8.485281 26.944375 0.285400
 176  1      29.698484 26.944375 0.208685
 177  1      10.606602 30.618609 0.289032
 178  1      31.819805 30.618609 0.668391
 179  1      12.727922 34.292844 0.343973
 180  1      33.941125 34.292844 0.726568
 181  1      19.091883 1.224733 1.109293
 182  1      40.305086 1.224733 3.939449
 183  1      0.000000 4.898967 3.415559
 184  1      21.213203 4.898967 3.902170
 185  1      2.121320 8.573202 3.346496
 186  1      23.334523 8.573202 4.094764
 187  1      4.242641 12.247436 0.620244
 188  1      25.455844 12.247436 4.235046
 189  1      6.363961 15.921671 0.436533
 190  1      27.577164 15.921671 4.306665
 191  1      8.485281 19.595906 0.276670
 192  1      29.698484 19.595906 4.301286
 193  1      10.606602 23.270140 0.198973
 194  1      31.819805 23.270140 4.109912
 195  1      12.727922 26.944375 0.197831
 196  1      33.941125 26.944375 1.007271
 197  1      14.849242 30.618609 0.259422
 198  1      36.062445 30.618609 0.838947
 199  1      16.970562 34.292844 0.374047
 200  1      38.183765 34.292844 0.793234
 201  1      4.242641 2.449502 4.318370
 202  1      25.455844 2.449502 4.703779
 203  1      6.363961 6.123737 4.274300
 204  1      27.577164 6.123737 4.836778
 205  1      8.485281 9.797971 1.547676
 206  1      29.698484 9.797971 4.919418
 207  1      10.606602 13.472206 1.154261
 208  1      31.819805 13.472206 4.940834
 209  1      12.727922 17.146440 0.879289
 210  1      33.941125 17.146440 4.886678
 211  1      14.849242 20.820675 0.834214
 212  1      36.062445 20.820675 4.739575
 213  1      16.970562 24.494910 0.880401
 214  1      38.183765 24.494910 1.940844
 215  1      19.091883 28.169144 0.995499
 216  1      40.305086 28.169144 1.789998
 217  1      -0.000000 31.843379 1.217576
 218  1      21.213203 31.843379 1.168032
 219  1      2.121320 35.517613 1.174865
 220  1      23.334523 35.517613 1.359355
 221  1      8.485281 2.449502 4.364888
 222  1      29.698484 2.449502 4.744372
 223  1      10.606602 6.123737 4.391423
 224  1      31.819805 6.123737 4.819029
 225  1      12.727922 9.797971 1.877792
 226  1      33.941125 9.797971 4.841622
 227  1      14.849242 13.472206 0.494004
 228  1      36.062445 13.472206 4.807583
 229  1      16.970562 17.146440 0.559208
 230  1      38.183765 17.146440 4.713985
 231  1      19.091883 20.820675 0.631983
 232  1      40.305086 20.820675 1.978492
 233  1      -0.000000 24.494910 1.350310
 234  1      21.213203 24.494910 0.752117
 235  1      2.121320 28.169144 1.251804
 236  1      23.334523 28.169144 0.960602
 237  1      4.242641 31.843379 1.199586
 238  1      25.455844 31.843379 1.230296
 239  1      6.363961 35.517613 1.183373
 240  1      27.577164 35.517613 1.440245
 241  1      12.727922 2.449502 4.465907
 242  1      33.941125 2.449502 4.777315
 243  1      14.849242 6.123737 2.049748
 244  1      36.062445 6.123737 4.794594
 245  1      16.970562 9.797971 5.054601
 246  1      38.183765 9.797971 4.768344
 247  1      19.091883 13.472206 0.183084
 248  1      40.305086 13.472206 4.694185
 249  1      0.000000 17.146440 1.489511
 250  1      21.213203 17.146440 0.328517
 251  1      2.121320 20.820675 1.359063
 252  1      23.334523 20.820675 0.437012
 253  1      4.242641 24.494910 1.252157
 254  1      25.455844 24.494910 0.603687
 255  1      6.363961 28.169144 1.191123
 256  1      27.577164 28.169144 1.030780
 257  1      8.485281 31.843379 1.178691
 258  1      29.698484 31.843379 1.409312
 259  1      10.606602 35.517613 1.210707
 260  1      31.819805 35.517613 1.544818
 261  1      16.970562 2.449502 1.982344
 262  1      38.183765 2.449502 4.793374
 263  1      19.091883 6.123737 4.803482
 264  1      40.305086 6.123737 4.767856
 265  1      0.000000 9.797971 4.213949
 266  1      21.213203 9.797971 5.050704
 267  1      2.121320 13.472206 4.100782
 268  1      23.334523 13.472206 0.029857
 269  1      4.242641 17.146440 1.354501
 270  1      25.455844 17.146440 0.128941
 271  1      6.363961 20.820675 1.220109
 272  1      27.577164 20.820675 0.180220
 273  1      8.485281 24.494910 1.140661
 274  1      29.698484 24.494910 0.165445
 275  1      10.606602 28.169144 1.123794
 276  1      31.819805 28.169144 1.631945
 277  1      12.727922 31.843379 1.163638
 278  1      33.941125 31.843379 1.617446
 279  1      14.849242 35.517613 1.255884
 280  1      36.062445 35.517613 1.624068
 281  1      21.213203 2.449502 2.058214
 282  1      0.000000 2.449502 4.797199
 283  1      2.121320 6.123737 4.259157
 284  1      23.334523 6.123737 4.840774
 285  1      4.242641 9.797971 4.162263
 286  1      25.455844 9.797971 4.993189
 287  1      6.363961 13.472206 1.384977
 288  1      27.577164 13.472206 5.084982
 289  1      8.485281 17.146440 1.171265
 290  1      29.698484 17.146440 5.105097
 291  1      10.606601 20.820675 1.043491
 292  1      31.819804 20.820675 5.015069
 293  1      12.727922 24.494910 1.013044
 294  1      33.941125 24.494910 2.098508
 295  1      14.849242 28.169144 1.055579
 296  1      36.062445 28.169144 1.803615
 297  1      16.970562 31.843379 1.157244
 298  1      38.183765 31.843379 1.699907
 299  1      19.091883 35.517613 1.304912
 300  1      40.305086 35.517613 1.657473
 301  1      0.000000 0.000000 0.002183
 302  1      21.213203 0.000000 2.821835
 303  1      2.121320 3.674235 5.161728
 304  1      23.334523 3.674235 0.402458
 305  1      4.242641 7.348469 5.097389
 306  1      25.455844 7.348469 0.560213
 307  1      6.363961 11.022704 2.358759
 308  1      27.577164 11.022704 0.669287
 309  1      8.485281 14.696938 2.106868
 310  1      29.698484 14.696938 0.713513
 311  1      10.606602 18.371173 1.901121
 312  1      31.819805 18.371173 0.674362
 313  1      12.727922 22.045408 1.829944
 314  1      33.941125 22.045408 0.496467
 315  1      14.849242 25.719642 1.849206
 316  1      36.062445 25.719642 2.803914
 317  1      16.970562 29.393877 1.935624
 318  1      38.183765 29.393877 2.629329
 319  1      19.091883 33.068111 2.075361
 320  1      40.305086 33.068111 2.555186
 321  1      4.242641 0.000000 0.011253
 322  1      25.455844 0.000000 2.882480
 323  1      6.363961 3.674235 5.186921
 324  1      27.577164 3.674235 0.431067
 325  1      8.485281 7.348469 5.140433
 326  1      29.698484 7.348469 0.528425
 327  1      10.606602 11.022704 2.300804
 328  1      31.819805 11.022704 0.570864
 329  1      12.727922 14.696938 1.720699
 330  1      33.941125 14.696938 0.549224
 331  1      14.849242 18.371173 1.620564
 332  1      36.062445 18.371173 0.452062
 333  1      16.970562 22.045408 1.647432
 334  1      38.183765 22.045408 2.886178
 335  1      19.091883 25.719642 1.742769
 336  1      40.305086 25.719642 2.721768
 337  1      -0.000000 29.393877 2.122111
 338  1      21.213203 29.393877 1.908105
 339  1      2.121320 33.068111 2.063779
 340  1      23.334523 33.068111 2.116536
 341  1      8.485281 0.000000 0.039244
 342  1      29.698484 0.000000 0.360723
 343  1      10.606602 3.674235 0.080814
 344  1      31.819805 3.674235 0.450379
 345  1      12.727922 7.348469 2.790353
 346  1      33.941125 7.348469 0.488653
 347  1      14.849242 11.022704 0.898131
 348  1      36.062445 11.022704 0.476176
 349  1      16.970562 14.696938 1.267797
 350  1      38.183765 14.696938 0.409109
 351  1      19.091883 18.371173 1.370038
 352  1      40.305086 18.371173 2.891468
 353  1      0.000000 22.045408 2.265071
 354  1      21.213203 22.045408 1.472669
 355  1      2.121320 25.719642 2.150634
 356  1      23.334523 25.719642 1.643347
 357  1      4.242641 29.393877 2.080412
 358  1      25.455844 29.393877 1.937746
 359  1      6.363961 33.068111 2.053802
 360  1      27.577164 33.068111 2.221118
 361  1      12.727922 0.000000 0.096158
 362  1      33.941125 0.000000 0.434298
 363  1      14.849242 3.674235 2.829550
 364  1      36.062445 3.674235 0.458926
 365  1      16.970562 7.348469 3.094204
 366  1      38.183765 7.348469 0.447123
 367  1      19.091883 11.022704 0.840677
 368  1      40.305086 11.022704 0.392169
 369  1      0.000000 14.696938 4.996775
 370  1      21.213203 14.696938 1.046699
 371  1      2.121320 18.371173 2.267353
 372  1      23.334523 18.371173 1.162309
 373  1      4.242641 22.045408 2.143678
 374  1      25.455844 22.045408 1.268642
 375  1      6.363961 25.719642 2.061108
 376  1      27.577164 25.719642 1.520669
 377  1      8.485281 29.393877 2.030943
 378  1      29.698484 29.393877 2.199315
 379  1      10.606601 33.068111 2.050752
 380  1      31.819804 33.068111 2.393308
 381  1      16.970562 0.000000 0.164266
 382  1      38.183765 0.000000 0.476461
 383  1      19.091883 3.674235 2.945405
 384  1      40.305086 3.674235 0.456527
 385  1      0.000000 7.348469 5.116500
 386  1      21.213203 7.348469 0.568392
 387  1      2.121320 11.022704 5.023888
 388  1      23.334523 11.022704 0.761141
 389  1      4.242641 14.696938 2.279347
 390  1      25.455844 14.696938 0.881421
 391  1      6.363961 18.371173 2.116311
 392  1      27.577164 18.371173 0.935700
 393  1      8.485281 22.045408 2.001948
 394  1      29.698484 22.045408 0.907401
 395  1      10.606602 25.719642 1.958987
 396  1      31.819805 25.719642 2.968801
 397  1      12.727922 29.393877 1.980588
 398  1      33.941125 29.393877 2.561407
 399  1      14.849242 33.068111 2.058072
 400  1      36.062445 33.068111 2.515759
 401  1      2.121320 1.224733 0.859722
 402  1      23.334523 1.224733 3.766182
 403  1      4.242641 4.898967 0.819196
 404  1      25.455844 4.898967 1.330142
 405  1      6.363961 8.573202 0.732469
 406  1      27.577164 8.573202 1.452181
 407  1      8.485281 12.247436 3.106780
 408  1      29.698484 12.247436 1.517447
 409  1      10.606602 15.921671 2.787851
 410  1      31.819805 15.921671 1.512591
 411  1      12.727922 19.595906 2.650465
 412  1      33.941125 19.595906 1.411678
 413  1      14.849242 23.270140 2.641416
 414  1      36.062445 23.270140 3.793345
 415  1      16.970562 26.944375 2.708888
 416  1      38.183765 26.944375 3.580589
 417  1      19.091883 30.618609 2.839021
 418  1      40.305086 30.618609 3.465023
 419  1      21.213203 34.292844 3.010839
 420  1      0.000000 34.292844 3.408979
 421  1      6.363961 1.224733 0.881064
 422  1      27.577164 1.224733 1.223809
 423  1      8.485281 4.898967 0.875332
 424  1      29.698484 4.898967 1.335972
 425  1      10.606602 8.573202 3.434429
 426  1      31.819805 8.573202 1.395633
 427  1      12.727922 12.247436 2.648185
 428  1      33.941125 12.247436 1.398683
 429  1      14.849242 15.921671 2.390072
 430  1      36.062445 15.921671 1.337405
 431  1      16.970562 19.595906 2.409626
 432  1      38.183765 19.595906 3.809644
 433  1      19.091883 23.270140 2.486930
 434  1      40.305086 23.270140 3.653206
 435  1      0.000000 26.944375 3.033419
 436  1      21.213203 26.944375 2.632791
 437  1      2.121320 30.618609 2.954917
 438  1      23.334523 30.618609 2.852582
 439  1      4.242641 34.292844 2.917384
 440  1      25.455844 34.292844 3.078214
 441  1      10.606602 1.224733 0.939424
 442  1      31.819805 1.224733 1.281603
 443  1      12.727922 4.898967 3.634102
 444  1      33.941125 4.898967 1.332446
 445  1      14.849242 8.573202 3.931625
 446  1      36.062445 8.573202 1.337050
 447  1      16.970562 12.247436 1.893257
 448  1      38.183765 12.247436 1.292225
 449  1      19.091883 15.921671 2.091535
 450  1      40.305086 15.921671 1.197735
 451  1      0.000000 19.595906 3.177432
 452  1      21.213203 19.595906 2.199459
 453  1      2.121320 23.270140 3.052528
 454  1      23.334523 23.270140 2.328565
 455  1      4.242641 26.944375 2.963580
 456  1      25.455844 26.944375 2.582651
 457  1      6.363961 30.618609 2.921467
 458  1      27.577164 30.618609 2.970308
 459  1      8.485281 34.292844 2.922311
 460  1      29.698484 34.292844 3.197899
 461  1      14.849242 1.224733 1.028812
 462  1      36.062445 1.224733 1.323586
 463  1      16.970562 4.898967 3.816830
 464  1      38.183765 4.898967 1.320698
 465  1      19.091883 8.573202 1.503157
 466  1      40.305086 8.573202 1.282650
 467  1      0.000000 12.247436 0.709212
 468  1      21.213203 12.247436 1.751747
 469  1      2.121320 15.921671 3.181057
 470  1      23.334523 15.921671 1.895335
 471  1      4.242641 19.595906 3.042548
 472  1      25.455844 19.595906 1.984538
 473  1      6.363961 23.270140 2.935651
 474  1      27.577164 23.270140 2.076668
 475  1      8.485281 26.944375 2.883476
 476  1      29.698484 26.944375 2.806761
 477  1      10.606602 30.618609 2.887108
 478  1      31.819805 30.618609 3.266467
 479  1      12.727922 34.292844 2.942049
 480  1      33.941125 34.292844 3.324644
 481  1      19.091883 1.224733 3.707369
 482  1      40.305086 1.224733 1.341373
 483  1      0.000000 4.898967 0.817483
 484  1      21.213203 4.898967 1.304094
 485  1      2.121320 8.573202 0.748420
 486  1      23.334523 8.573202 1.496688
 487  1      4.242641 12.247436 3.218320
 488  1      25.455844 12.247436 1.636970
 489  1      6.363961 15.921671 3.034609
 490  1      27.577164 15.921671 1.708589
 491  1      8.485281 19.595906 2.874746
 492  1      29.698484 19.595906 1.703210
 493  1      10.606602 23.270140 2.797049
 494  1      31.819805 23.270140 1.511836
 495  1      12.727922 26.944375 2.795907
 496  1      33.941125 26.944375 3.605347
 497  1      14.849242 30.618609 2.857498
 498  1      36.062445 30.618609 3.437023
 499  1      16.970562 34.292844 2.972123
 500  1      38.183765 34.292844 3.391310
 501  1      4.242641 2.449502 1.720294
 502  1      25.455844 2.449502 2.105703
 503  1      6.363961 6.123737 1.676224
 504  1      27.577164 6.123737 2.238702
 505  1      8.485281 9.797971 4.145752
 506  1      29.698484 9.797971 2.321342
 507  1      10.606602 13.472206 3.752337
 508  1      31.819805 13.472206 2.342758
 509  1      12.727922 17.146440 3.477365
 510  1      33.941125 17.146440 2.288602
 511  1      14.849242 20.820675 3.432290
 512  1      36.062445 20.820675 2.141499
 513  1      16.970562 24.494910 3.478477
 514  1      38.183765 24.494910 4.538920
 515  1      19.091883 28.169144 3.593575
 516  1      40.305086 28.169144 4.388074
 517  1      0.000000 31.843379 3.815652
 518  1      21.213203 31.843379 3.766108
 519  1      2.121320 35.517613 3.772941
 520  1      23.334523 35.517613 3.957431
 521  1      8.485281 2.449502 1.766812
 522  1      29.698484 2.449502 2.146296
 523  1      10.606602 6.123737 1.793347
 524  1      31.819805 6.123737 2.220953
 525  1      12.727922 9.797971 4.475868
 526  1      33.941125 9.797971 2.243546
 527  1      14.849242 13.472206 3.092080
 528  1      36.062445 13.472206 2.209507
 529  1      16.970562 17.146440 3.157284
 530  1      38.183765 17.146440 2.115909
 531  1      19.091883 20.820675 3.230059
 532  1      40.305086 20.820675 4.576568
 533  1      0.000000 24.494910 3.948386
 534  1      21.213203 24.494910 3.350193
 535  1      2.121320 28.169144 3.849880
 536  1      23.334523 28.169144 3.558678
 537  1      4.242641 31.843379 3.797662
 538  1      25.455844 31.843379 3.828372
 539  1      6.363961 35.517613 3.781449
 540  1      27.577164 35.517613 4.038321
 541  1      12.727922 2.449502 1.867831
 542  1      33.941125 2.449502 2.179239
 543  1      14.849242 6.123737 4.647824
 544  1      36.062445 6.123737 2.196518
 545  1      16.970562 9.797971 2.456525
 546  1      38.183765 9.797971 2.170268
 547  1      19.091883 13.472206 2.781160
 548  1      40.305086 13.472206 2.096109
 549  1      0.000000 17.146440 4.087587
 550  1      21.213203 17.146440 2.926593
 551  1      2.121320 20.820675 3.957139
 552  1      23.334523 20.820675 3.035088
 553  1      4.242641 24.494910 3.850233
 554  1      25.455844 24.494910 3.201763
 555  1      6.363961 28.169144 3.789199
 556  1      27.577164 28.169144 3.628856
 557  1      8.485281 31.843379 3.776767
 558  1      29.698484 31.843379 4.007388
 559  1      10.606602 35.517613 3.808783
 560  1      31.819805 35.517613 4.142894
 561  1      16.970562 2.449502 4.580420
 562  1      38.183765 2.449502 2.195298
 563  1      19.091883 6.123737 2.205406
 564  1      40.305086 6.123737 2.169780
 565  1      0.000000 9.797971 1.615873
 566  1      21.213203 9.797971 2.452628
 567  1      2.121320 13.472206 1.502706
 568  1      23.334523 13.472206 2.627933
 569  1      4.242641 17.146440 3.952577
 570  1      25.455844 17.146440 2.727017
 571  1      6.363961 20.820675 3.818185
 572  1      27.577164 20.820675 2.778296
 573  1      8.485281 24.494910 3.738737
 574  1      29.698484 24.494910 2.763521
 575  1      10.606602 28.169144 3.721870
 576  1      31.819805 28.169144 4.230021
 577  1      12.727922 31.843379 3.761714
 578  1      33.941125 31.843379 4.215522
 579  1      14.849242 35.517613 3.853960
 580  1      36.062445 35.517613 4.222144
 581  1      21.213203 2.449502 4.656290
 582  1      0.000000 2.449502 2.199123
 583  1      2.121320 6.123737 1.661081
 584  1      23.334523 6.123737 2.242698
 585  1      4.242641 9.797971 1.564187
 586  1      25.455844 9.797971 2.395113
 587  1      6.363961 13.472206 3.983053
 588  1      27.577164 13.472206 2.486906
 589  1      8.485281 17.146440 3.769341
 590  1      29.698484 17.146440 2.507021
 591  1      10.606601 20.820675 3.641567
 592  1      31.819804 20.820675 2.416993
 593  1      12.727922 24.494910 3.611120
 594  1      33.941125 24.494910 4.696584
 595  1      14.849242 28.169144 3.653655
 596  1      36.062445 28.169144 4.401691
 597  1      16.970562 31.843379 3.755320
 598  1      38.183765 31.843379 4.297983
 599  1      19.091883 35.517613 3.902988
 600  1      40.305086 35.517613 4.255549
