# Converted from POSCAR to lammps format

600 atoms
1 atom types

0.000000   42.426406   xlo xhi
0.000000   36.742346   ylo yhi
0.000000    5.196152   zlo zhi

  0.000000    0.000000    0.000000   xy xz yz

Atoms

   1  1      0.000000 0.000000 2.598076
   2  1      21.213203 0.000000 0.253351
   3  1      2.121320 3.674235 2.558566
   4  1      23.334523 3.674235 3.029354
   5  1      4.242641 7.348469 2.483768
   6  1      25.455844 7.348469 3.178323
   7  1      6.363961 11.022704 4.905827
   8  1      27.577164 11.022704 3.275762
   9  1      8.485281 14.696938 4.612310
  10  1      29.698484 14.696938 3.310379
  11  1      10.606602 18.371173 4.429575
  12  1      31.819805 18.371173 3.264498
  13  1      12.727922 22.045408 4.383134
  14  1      33.941125 22.045408 3.082202
  15  1      14.849242 25.719642 4.417071
  16  1      36.062445 25.719642 0.190926
  17  1      16.970562 29.393877 4.513707
  18  1      38.183765 29.393877 0.015103
  19  1      19.091883 33.068111 4.661753
  20  1      40.305086 33.068111 5.136529
  21  1      4.242641 0.000000 2.613987
  22  1      25.455844 0.000000 2.905947
  23  1      6.363961 3.674235 2.597152
  24  1      27.577164 3.674235 3.048833
  25  1      8.485281 7.348469 2.549945
  26  1      29.698484 7.348469 3.138858
  27  1      10.606602 11.022704 4.739000
  28  1      31.819805 11.022704 3.172748
  29  1      12.727922 14.696938 4.199876
  30  1      33.941125 14.696938 3.143128
  31  1      14.849242 18.371173 4.167263
  32  1      36.062445 18.371173 3.039500
  33  1      16.970562 22.045408 4.213351
  34  1      38.183765 22.045408 0.273245
  35  1      19.091883 25.719642 4.318152
  36  1      40.305086 25.719642 0.107231
  37  1      0.000000 29.393877 4.684098
  38  1      21.213203 29.393877 4.489634
  39  1      2.121320 33.068111 4.627811
  40  1      23.334523 33.068111 4.701908
  41  1      8.485281 0.000000 2.654898
  42  1      29.698484 0.000000 2.977769
  43  1      10.606602 3.674235 2.717571
  44  1      31.819805 3.674235 3.062919
  45  1      12.727922 7.348469 0.312445
  46  1      33.941125 7.348469 3.094511
  47  1      14.849242 11.022704 3.588773
  48  1      36.062445 11.022704 3.073952
  49  1      16.970562 14.696938 3.840167
  50  1      38.183765 14.696938 2.998418
  51  1      19.091883 18.371173 3.944046
  52  1      40.305086 18.371173 0.277639
  53  1      0.000000 22.045408 4.823899
  54  1      21.213203 22.045408 4.050553
  55  1      2.121320 25.719642 4.710388
  56  1      23.334523 25.719642 4.224303
  57  1      4.242641 29.393877 4.644193
  58  1      25.455844 29.393877 4.520731
  59  1      6.363961 33.068111 4.623872
  60  1      27.577164 33.068111 4.804525
  61  1      12.727922 0.000000 2.725407
  62  1      33.941125 0.000000 3.048680
  63  1      14.849242 3.674235 0.289139
  64  1      36.062445 3.674235 3.068687
  65  1      16.970562 7.348469 3.171533
  66  1      38.183765 7.348469 3.049889
  67  1      19.091883 11.022704 3.468365
  68  1      40.305086 11.022704 2.985097
  69  1      0.000000 14.696938 2.361912
  70  1      21.213203 14.696938 3.642396
  71  1      2.121320 18.371173 4.820606
  72  1      23.334523 18.371173 3.749064
  73  1      4.242641 22.045408 4.696943
  74  1      25.455844 22.045408 3.852983
  75  1      6.363961 25.719642 4.620327
  76  1      27.577164 25.719642 4.104295
  77  1      8.485281 29.393877 4.598566
  78  1      29.698484 29.393877 4.782343
  79  1      10.606601 33.068111 4.628835
  80  1      31.819804 33.068111 4.974966
  81  1      16.970562 0.000000 2.796988
  82  1      38.183765 0.000000 3.090154
  83  1      19.091883 3.674235 0.391279
  84  1      40.305086 3.674235 3.065873
  85  1      0.000000 7.348469 2.501233
  86  1      21.213203 7.348469 3.202354
  87  1      2.121320 11.022704 2.392809
  88  1      23.334523 11.022704 3.374438
  89  1      4.242641 14.696938 4.824354
  90  1      25.455844 14.696938 3.479720
  91  1      6.363961 18.371173 4.655537
  92  1      27.577164 18.371173 3.526169
  93  1      8.485281 22.045408 4.551148
  94  1      29.698484 22.045408 3.493794
  95  1      10.606602 25.719642 4.520647
  96  1      31.819805 25.719642 0.356711
  97  1      12.727922 29.393877 4.553535
  98  1      33.941125 29.393877 5.143837
  99  1      14.849242 33.068111 4.642438
 100  1      36.062445 33.068111 5.096503
 101  1      2.121320 1.224733 3.457060
 102  1      23.334523 1.224733 3.793642
 103  1      4.242641 4.898967 3.413387
 104  1      25.455844 4.898967 3.951180
 105  1      6.363961 8.573202 3.308463
 106  1      27.577164 8.573202 4.063782
 107  1      8.485281 12.247436 0.413505
 108  1      29.698484 12.247436 4.119092
 109  1      10.606602 15.921671 0.091605
 110  1      31.819805 15.921671 4.106185
 111  1      12.727922 19.595906 5.192197
 112  1      33.941125 19.595906 3.999455
 113  1      14.849242 23.270140 0.007465
 114  1      36.062445 23.270140 1.181269
 115  1      16.970562 26.944375 0.086476
 116  1      38.183765 26.944375 0.966716
 117  1      19.091883 30.618609 0.224838
 118  1      40.305086 30.618609 0.850758
 119  1      21.213203 34.292844 0.402642
 120  1      -0.000000 34.292844 0.794965
 121  1      6.363961 1.224733 3.489724
 122  1      27.577164 1.224733 3.842666
 123  1      8.485281 4.898967 3.494306
 124  1      29.698484 4.898967 3.949563
 125  1      10.606602 8.573202 0.880322
 126  1      31.819805 8.573202 4.001641
 127  1      12.727922 12.247436 4.943405
 128  1      33.941125 12.247436 3.996481
 129  1      14.849242 15.921671 4.926154
 130  1      36.062445 15.921671 3.927606
 131  1      16.970562 19.595906 4.972375
 132  1      38.183765 19.595906 1.197861
 133  1      19.091883 23.270140 5.060120
 134  1      40.305086 23.270140 1.038412
 135  1      -0.000000 26.944375 0.398369
 136  1      21.213203 26.944375 0.015968
 137  1      2.121320 30.618609 0.322075
 138  1      23.334523 30.618609 0.239758
 139  1      4.242641 34.292844 0.288379
 140  1      25.455844 34.292844 0.467028
 141  1      10.606602 1.224733 3.566459
 142  1      31.819805 1.224733 3.896283
 143  1      12.727922 4.898967 1.102339
 144  1      33.941125 4.898967 3.941812
 145  1      14.849242 8.573202 4.078783
 146  1      36.062445 8.573202 3.939116
 147  1      16.970562 12.247436 4.506361
 148  1      38.183765 12.247436 3.885491
 149  1      19.091883 15.921671 4.673189
 150  1      40.305086 15.921671 3.782124
 151  1      -0.000000 19.595906 0.539498
 152  1      21.213203 19.595906 4.779299
 153  1      2.121320 23.270140 0.413734
 154  1      23.334523 23.270140 4.909724
 155  1      4.242641 26.944375 0.328350
 156  1      25.455844 26.944375 5.165224
 157  1      6.363961 30.618609 0.292468
 158  1      27.577164 30.618609 0.357343
 159  1      8.485281 34.292844 0.302203
 160  1      29.698484 34.292844 0.583974
 161  1      14.849242 1.224733 3.667301
 162  1      36.062445 1.224733 3.936205
 163  1      16.970562 4.898967 1.279510
 164  1      38.183765 4.898967 3.927940
 165  1      19.091883 8.573202 4.149922
 166  1      40.305086 8.573202 3.881379
 167  1      0.000000 12.247436 3.275451
 168  1      21.213203 12.247436 4.362635
 169  1      2.121320 15.921671 0.538360
 170  1      23.334523 15.921671 4.488796
 171  1      4.242641 19.595906 0.395250
 172  1      25.455844 19.595906 4.571766
 173  1      6.363961 23.270140 0.293347
 174  1      27.577164 23.270140 4.661498
 175  1      8.485281 26.944375 0.250064
 176  1      29.698484 26.944375 0.194222
 177  1      10.606602 30.618609 0.263746
 178  1      31.819805 30.618609 0.652728
 179  1      12.727922 34.292844 0.330994
 180  1      33.941125 34.292844 0.708947
 181  1      19.091883 1.224733 1.145467
 182  1      40.305086 1.224733 3.954362
 183  1      0.000000 4.898967 3.405156
 184  1      21.213203 4.898967 3.938996
 185  1      2.121320 8.573202 3.324048
 186  1      23.334523 8.573202 4.118364
 187  1      4.242641 12.247436 0.574026
 188  1      25.455844 12.247436 4.242715
 189  1      6.363961 15.921671 0.370063
 190  1      27.577164 15.921671 4.303713
 191  1      8.485281 19.595906 0.217276
 192  1      29.698484 19.595906 4.292207
 193  1      10.606602 23.270140 0.155279
 194  1      31.819805 23.270140 4.097260
 195  1      12.727922 26.944375 0.167115
 196  1      33.941125 26.944375 0.992453
 197  1      14.849242 30.618609 0.239697
 198  1      36.062445 30.618609 0.822611
 199  1      16.970562 34.292844 0.365084
 200  1      38.183765 34.292844 0.775302
 201  1      4.242641 2.449502 4.320674
 202  1      25.455844 2.449502 4.727642
 203  1      6.363961 6.123737 4.273467
 204  1      27.577164 6.123737 4.854125
 205  1      8.485281 9.797971 1.505528
 206  1      29.698484 9.797971 4.927683
 207  1      10.606602 13.472206 0.998653
 208  1      31.819805 13.472206 4.940374
 209  1      12.727922 17.146440 0.803442
 210  1      33.941125 17.146440 4.879110
 211  1      14.849242 20.820675 0.791550
 212  1      36.062445 20.820675 4.726935
 213  1      16.970562 24.494910 0.852040
 214  1      38.183765 24.494910 1.925387
 215  1      19.091883 28.169144 0.975762
 216  1      40.305086 28.169144 1.773810
 217  1      -0.000000 31.843379 1.181832
 218  1      21.213203 31.843379 1.154381
 219  1      2.121320 35.517613 1.140431
 220  1      23.334523 35.517613 1.348963
 221  1      8.485281 2.449502 4.385738
 222  1      29.698484 2.449502 4.762042
 223  1      10.606602 6.123737 4.442257
 224  1      31.819805 6.123737 4.830586
 225  1      12.727922 9.797971 2.302865
 226  1      33.941125 9.797971 4.845444
 227  1      14.849242 13.472206 0.433722
 228  1      36.062445 13.472206 4.803216
 229  1      16.970562 17.146440 0.523389
 230  1      38.183765 17.146440 4.702247
 231  1      19.091883 20.820675 0.606172
 232  1      40.305086 20.820675 1.961874
 233  1      -0.000000 24.494910 1.312177
 234  1      21.213203 24.494910 0.732025
 235  1      2.121320 28.169144 1.215537
 236  1      23.334523 28.169144 0.944309
 237  1      4.242641 31.843379 1.167425
 238  1      25.455844 31.843379 1.216094
 239  1      6.363961 35.517613 1.157490
 240  1      27.577164 35.517613 1.425707
 241  1      12.727922 2.449502 4.509740
 242  1      33.941125 2.449502 4.791464
 243  1      14.849242 6.123737 2.138795
 244  1      36.062445 6.123737 4.802695
 245  1      16.970562 9.797971 5.125519
 246  1      38.183765 9.797971 4.768190
 247  1      19.091883 13.472206 0.185123
 248  1      40.305086 13.472206 4.684061
 249  1      0.000000 17.146440 1.450214
 250  1      21.213203 17.146440 0.315682
 251  1      2.121320 20.820675 1.315950
 252  1      23.334523 20.820675 0.421804
 253  1      4.242641 24.494910 1.211475
 254  1      25.455844 24.494910 0.588525
 255  1      6.363961 28.169144 1.156621
 256  1      27.577164 28.169144 1.015873
 257  1      8.485281 31.843379 1.152576
 258  1      29.698484 31.843379 1.393889
 259  1      10.606602 35.517613 1.196635
 260  1      31.819805 35.517613 1.527372
 261  1      16.970562 2.449502 2.027960
 262  1      38.183765 2.449502 4.806239
 263  1      19.091883 6.123737 4.854005
 264  1      40.305086 6.123737 4.774241
 265  1      0.000000 9.797971 4.189099
 266  1      21.213203 9.797971 5.078371
 267  1      2.121320 13.472206 4.059855
 268  1      23.334523 13.472206 0.034674
 269  1      4.242641 17.146440 1.301665
 270  1      25.455844 17.146440 0.122753
 271  1      6.363961 20.820675 1.169209
 272  1      27.577164 20.820675 0.169187
 273  1      8.485281 24.494910 1.099427
 274  1      29.698484 24.494910 0.152027
 275  1      10.606602 28.169144 1.093239
 276  1      31.819805 28.169144 1.617003
 277  1      12.727922 31.843379 1.144168
 278  1      33.941125 31.843379 1.600943
 279  1      14.849242 35.517613 1.249795
 280  1      36.062445 35.517613 1.605250
 281  1      21.213203 2.449502 2.092017
 282  1      0.000000 2.449502 4.811846
 283  1      2.121320 6.123737 4.246734
 284  1      23.334523 6.123737 4.868794
 285  1      4.242641 9.797971 4.130556
 286  1      25.455844 9.797971 5.007932
 287  1      6.363961 13.472206 1.317584
 288  1      27.577164 13.472206 5.087598
 289  1      8.485281 17.146440 1.097009
 290  1      29.698484 17.146440 5.099551
 291  1      10.606601 20.820675 0.989694
 292  1      31.819804 20.820675 5.004404
 293  1      12.727922 24.494910 0.976079
 294  1      33.941125 24.494910 2.084718
 295  1      14.849242 28.169144 1.030561
 296  1      36.062445 28.169144 1.788005
 297  1      16.970562 31.843379 1.142213
 298  1      38.183765 31.843379 1.683129
 299  1      19.091883 35.517613 1.298681
 300  1      40.305086 35.517613 1.639378
 301  1      0.000000 0.000000 0.000000
 302  1      21.213203 0.000000 2.851427
 303  1      2.121320 3.674235 5.156642
 304  1      23.334523 3.674235 0.431278
 305  1      4.242641 7.348469 5.081844
 306  1      25.455844 7.348469 0.580247
 307  1      6.363961 11.022704 2.307751
 308  1      27.577164 11.022704 0.677686
 309  1      8.485281 14.696938 2.014234
 310  1      29.698484 14.696938 0.712303
 311  1      10.606602 18.371173 1.831499
 312  1      31.819805 18.371173 0.666422
 313  1      12.727922 22.045408 1.785058
 314  1      33.941125 22.045408 0.484126
 315  1      14.849242 25.719642 1.818995
 316  1      36.062445 25.719642 2.789002
 317  1      16.970562 29.393877 1.915631
 318  1      38.183765 29.393877 2.613179
 319  1      19.091883 33.068111 2.063677
 320  1      40.305086 33.068111 2.538453
 321  1      4.242641 0.000000 0.015911
 322  1      25.455844 0.000000 0.307871
 323  1      6.363961 3.674235 5.195228
 324  1      27.577164 3.674235 0.450757
 325  1      8.485281 7.348469 5.148021
 326  1      29.698484 7.348469 0.540782
 327  1      10.606602 11.022704 2.140924
 328  1      31.819805 11.022704 0.574672
 329  1      12.727922 14.696938 1.601800
 330  1      33.941125 14.696938 0.545052
 331  1      14.849242 18.371173 1.569187
 332  1      36.062445 18.371173 0.441424
 333  1      16.970562 22.045408 1.615275
 334  1      38.183765 22.045408 2.871321
 335  1      19.091883 25.719642 1.720076
 336  1      40.305086 25.719642 2.705307
 337  1      -0.000000 29.393877 2.086022
 338  1      21.213203 29.393877 1.891558
 339  1      2.121320 33.068111 2.029735
 340  1      23.334523 33.068111 2.103832
 341  1      8.485281 0.000000 0.056822
 342  1      29.698484 0.000000 0.379693
 343  1      10.606602 3.674235 0.119495
 344  1      31.819805 3.674235 0.464843
 345  1      12.727922 7.348469 2.910521
 346  1      33.941125 7.348469 0.496435
 347  1      14.849242 11.022704 0.990697
 348  1      36.062445 11.022704 0.475876
 349  1      16.970562 14.696938 1.242091
 350  1      38.183765 14.696938 0.400342
 351  1      19.091883 18.371173 1.345970
 352  1      40.305086 18.371173 2.875715
 353  1      0.000000 22.045408 2.225823
 354  1      21.213203 22.045408 1.452477
 355  1      2.121320 25.719642 2.112312
 356  1      23.334523 25.719642 1.626227
 357  1      4.242641 29.393877 2.046117
 358  1      25.455844 29.393877 1.922655
 359  1      6.363961 33.068111 2.025796
 360  1      27.577164 33.068111 2.206449
 361  1      12.727922 0.000000 0.127331
 362  1      33.941125 0.000000 0.450604
 363  1      14.849242 3.674235 2.887215
 364  1      36.062445 3.674235 0.470611
 365  1      16.970562 7.348469 0.573457
 366  1      38.183765 7.348469 0.451813
 367  1      19.091883 11.022704 0.870289
 368  1      40.305086 11.022704 0.387021
 369  1      0.000000 14.696938 4.959988
 370  1      21.213203 14.696938 1.044320
 371  1      2.121320 18.371173 2.222530
 372  1      23.334523 18.371173 1.150988
 373  1      4.242641 22.045408 2.098867
 374  1      25.455844 22.045408 1.254907
 375  1      6.363961 25.719642 2.022251
 376  1      27.577164 25.719642 1.506219
 377  1      8.485281 29.393877 2.000490
 378  1      29.698484 29.393877 2.184267
 379  1      10.606601 33.068111 2.030759
 380  1      31.819804 33.068111 2.376890
 381  1      16.970562 0.000000 0.198912
 382  1      38.183765 0.000000 0.492078
 383  1      19.091883 3.674235 2.989355
 384  1      40.305086 3.674235 0.467797
 385  1      0.000000 7.348469 5.099309
 386  1      21.213203 7.348469 0.604278
 387  1      2.121320 11.022704 4.990885
 388  1      23.334523 11.022704 0.776362
 389  1      4.242641 14.696938 2.226278
 390  1      25.455844 14.696938 0.881644
 391  1      6.363961 18.371173 2.057461
 392  1      27.577164 18.371173 0.928093
 393  1      8.485281 22.045408 1.953072
 394  1      29.698484 22.045408 0.895718
 395  1      10.606602 25.719642 1.922571
 396  1      31.819805 25.719642 2.954787
 397  1      12.727922 29.393877 1.955459
 398  1      33.941125 29.393877 2.545761
 399  1      14.849242 33.068111 2.044362
 400  1      36.062445 33.068111 2.498427
 401  1      2.121320 1.224733 0.858984
 402  1      23.334523 1.224733 1.195566
 403  1      4.242641 4.898967 0.815311
 404  1      25.455844 4.898967 1.353104
 405  1      6.363961 8.573202 0.710387
 406  1      27.577164 8.573202 1.465706
 407  1      8.485281 12.247436 3.011581
 408  1      29.698484 12.247436 1.521016
 409  1      10.606602 15.921671 2.689681
 410  1      31.819805 15.921671 1.508109
 411  1      12.727922 19.595906 2.594121
 412  1      33.941125 19.595906 1.401379
 413  1      14.849242 23.270140 2.605541
 414  1      36.062445 23.270140 3.779345
 415  1      16.970562 26.944375 2.684552
 416  1      38.183765 26.944375 3.564792
 417  1      19.091883 30.618609 2.822914
 418  1      40.305086 30.618609 3.448834
 419  1      21.213203 34.292844 3.000718
 420  1      0.000000 34.292844 3.393041
 421  1      6.363961 1.224733 0.891648
 422  1      27.577164 1.224733 1.244590
 423  1      8.485281 4.898967 0.896230
 424  1      29.698484 4.898967 1.351487
 425  1      10.606602 8.573202 3.478398
 426  1      31.819805 8.573202 1.403565
 427  1      12.727922 12.247436 2.345329
 428  1      33.941125 12.247436 1.398405
 429  1      14.849242 15.921671 2.328078
 430  1      36.062445 15.921671 1.329530
 431  1      16.970562 19.595906 2.374299
 432  1      38.183765 19.595906 3.795937
 433  1      19.091883 23.270140 2.462044
 434  1      40.305086 23.270140 3.636488
 435  1      0.000000 26.944375 2.996445
 436  1      21.213203 26.944375 2.614044
 437  1      2.121320 30.618609 2.920151
 438  1      23.334523 30.618609 2.837834
 439  1      4.242641 34.292844 2.886455
 440  1      25.455844 34.292844 3.065104
 441  1      10.606602 1.224733 0.968383
 442  1      31.819805 1.224733 1.298207
 443  1      12.727922 4.898967 3.700415
 444  1      33.941125 4.898967 1.343736
 445  1      14.849242 8.573202 1.480707
 446  1      36.062445 8.573202 1.341040
 447  1      16.970562 12.247436 1.908285
 448  1      38.183765 12.247436 1.287415
 449  1      19.091883 15.921671 2.075113
 450  1      40.305086 15.921671 1.184048
 451  1      0.000000 19.595906 3.137574
 452  1      21.213203 19.595906 2.181223
 453  1      2.121320 23.270140 3.011810
 454  1      23.334523 23.270140 2.311648
 455  1      4.242641 26.944375 2.926426
 456  1      25.455844 26.944375 2.567148
 457  1      6.363961 30.618609 2.890544
 458  1      27.577164 30.618609 2.955419
 459  1      8.485281 34.292844 2.900279
 460  1      29.698484 34.292844 3.182050
 461  1      14.849242 1.224733 1.069225
 462  1      36.062445 1.224733 1.338129
 463  1      16.970562 4.898967 3.877586
 464  1      38.183765 4.898967 1.329864
 465  1      19.091883 8.573202 1.551846
 466  1      40.305086 8.573202 1.283303
 467  1      0.000000 12.247436 0.677375
 468  1      21.213203 12.247436 1.764559
 469  1      2.121320 15.921671 3.136436
 470  1      23.334523 15.921671 1.890720
 471  1      4.242641 19.595906 2.993326
 472  1      25.455844 19.595906 1.973690
 473  1      6.363961 23.270140 2.891423
 474  1      27.577164 23.270140 2.063422
 475  1      8.485281 26.944375 2.848140
 476  1      29.698484 26.944375 2.792298
 477  1      10.606602 30.618609 2.861822
 478  1      31.819805 30.618609 3.250804
 479  1      12.727922 34.292844 2.929070
 480  1      33.941125 34.292844 3.307023
 481  1      19.091883 1.224733 3.743543
 482  1      40.305086 1.224733 1.356286
 483  1      -0.000000 4.898967 0.807080
 484  1      21.213203 4.898967 1.340920
 485  1      2.121320 8.573202 0.725972
 486  1      23.334523 8.573202 1.520288
 487  1      4.242641 12.247436 3.172102
 488  1      25.455844 12.247436 1.644639
 489  1      6.363961 15.921671 2.968139
 490  1      27.577164 15.921671 1.705637
 491  1      8.485281 19.595906 2.815352
 492  1      29.698484 19.595906 1.694131
 493  1      10.606602 23.270140 2.753355
 494  1      31.819805 23.270140 1.499184
 495  1      12.727922 26.944375 2.765191
 496  1      33.941125 26.944375 3.590529
 497  1      14.849242 30.618609 2.837773
 498  1      36.062445 30.618609 3.420687
 499  1      16.970562 34.292844 2.963160
 500  1      38.183765 34.292844 3.373378
 501  1      4.242641 2.449502 1.722598
 502  1      25.455844 2.449502 2.129566
 503  1      6.363961 6.123737 1.675391
 504  1      27.577164 6.123737 2.256049
 505  1      8.485281 9.797971 4.103604
 506  1      29.698484 9.797971 2.329607
 507  1      10.606602 13.472206 3.596729
 508  1      31.819805 13.472206 2.342298
 509  1      12.727922 17.146440 3.401518
 510  1      33.941125 17.146440 2.281034
 511  1      14.849242 20.820675 3.389626
 512  1      36.062445 20.820675 2.128859
 513  1      16.970562 24.494910 3.450116
 514  1      38.183765 24.494910 4.523463
 515  1      19.091883 28.169144 3.573838
 516  1      40.305086 28.169144 4.371886
 517  1      0.000000 31.843379 3.779908
 518  1      21.213203 31.843379 3.752457
 519  1      2.121320 35.517613 3.738507
 520  1      23.334523 35.517613 3.947039
 521  1      8.485281 2.449502 1.787662
 522  1      29.698484 2.449502 2.163966
 523  1      10.606602 6.123737 1.844181
 524  1      31.819805 6.123737 2.232510
 525  1      12.727922 9.797971 4.900941
 526  1      33.941125 9.797971 2.247368
 527  1      14.849242 13.472206 3.031798
 528  1      36.062445 13.472206 2.205140
 529  1      16.970562 17.146440 3.121465
 530  1      38.183765 17.146440 2.104171
 531  1      19.091883 20.820675 3.204248
 532  1      40.305086 20.820675 4.559950
 533  1      -0.000000 24.494910 3.910253
 534  1      21.213203 24.494910 3.330101
 535  1      2.121320 28.169144 3.813613
 536  1      23.334523 28.169144 3.542385
 537  1      4.242641 31.843379 3.765501
 538  1      25.455844 31.843379 3.814170
 539  1      6.363961 35.517613 3.755566
 540  1      27.577164 35.517613 4.023783
 541  1      12.727922 2.449502 1.911664
 542  1      33.941125 2.449502 2.193388
 543  1      14.849242 6.123737 4.736871
 544  1      36.062445 6.123737 2.204619
 545  1      16.970562 9.797971 2.527443
 546  1      38.183765 9.797971 2.170114
 547  1      19.091883 13.472206 2.783199
 548  1      40.305086 13.472206 2.085985
 549  1      0.000000 17.146440 4.048290
 550  1      21.213203 17.146440 2.913758
 551  1      2.121320 20.820675 3.914026
 552  1      23.334523 20.820675 3.019880
 553  1      4.242641 24.494910 3.809551
 554  1      25.455844 24.494910 3.186601
 555  1      6.363961 28.169144 3.754697
 556  1      27.577164 28.169144 3.613949
 557  1      8.485281 31.843379 3.750652
 558  1      29.698484 31.843379 3.991965
 559  1      10.606602 35.517613 3.794711
 560  1      31.819805 35.517613 4.125448
 561  1      16.970562 2.449502 4.626036
 562  1      38.183765 2.449502 2.208163
 563  1      19.091883 6.123737 2.255929
 564  1      40.305086 6.123737 2.176165
 565  1      0.000000 9.797971 1.591023
 566  1      21.213203 9.797971 2.480295
 567  1      2.121320 13.472206 1.461779
 568  1      23.334523 13.472206 2.632750
 569  1      4.242641 17.146440 3.899741
 570  1      25.455844 17.146440 2.720829
 571  1      6.363961 20.820675 3.767285
 572  1      27.577164 20.820675 2.767263
 573  1      8.485281 24.494910 3.697503
 574  1      29.698484 24.494910 2.750103
 575  1      10.606602 28.169144 3.691315
 576  1      31.819805 28.169144 4.215079
 577  1      12.727922 31.843379 3.742244
 578  1      33.941125 31.843379 4.199019
 579  1      14.849242 35.517613 3.847871
 580  1      36.062445 35.517613 4.203326
 581  1      21.213203 2.449502 4.690093
 582  1      0.000000 2.449502 2.213770
 583  1      2.121320 6.123737 1.648658
 584  1      23.334523 6.123737 2.270718
 585  1      4.242641 9.797971 1.532480
 586  1      25.455844 9.797971 2.409856
 587  1      6.363961 13.472206 3.915660
 588  1      27.577164 13.472206 2.489522
 589  1      8.485281 17.146440 3.695085
 590  1      29.698484 17.146440 2.501475
 591  1      10.606601 20.820675 3.587770
 592  1      31.819804 20.820675 2.406328
 593  1      12.727922 24.494910 3.574155
 594  1      33.941125 24.494910 4.682794
 595  1      14.849242 28.169144 3.628637
 596  1      36.062445 28.169144 4.386081
 597  1      16.970562 31.843379 3.740289
 598  1      38.183765 31.843379 4.281205
 599  1      19.091883 35.517613 3.896757
 600  1      40.305086 35.517613 4.237454
