# Converted from POSCAR to lammps format

600 atoms
2 atom types

0.000000   42.426406   xlo xhi
0.000000   36.742346   ylo yhi
0.000000    5.196152   zlo zhi

  0.000000    0.000000    0.000000   xy xz yz

Atoms

   1  1      0.000000 0.000000 5.196152
   2  1      21.213203 0.000000 0.295131
   3  1      2.121320 3.674235 5.144927
   4  1      23.334523 3.674235 0.477484
   5  1      4.242641 7.348469 5.037851
   6  1      25.455844 7.348469 0.624656
   7  1      6.363961 11.022704 4.770566
   8  1      27.577164 11.022704 0.719290
   9  1      8.485281 14.696938 1.864684
  10  1      29.698484 14.696938 0.758943
  11  1      10.606602 18.371173 1.741713
  12  1      31.819805 18.371173 0.737843
  13  1      12.727922 22.045408 1.720602
  14  1      33.941125 22.045408 0.614880
  15  1      14.849242 25.719642 1.760243
  16  1      36.062445 25.719642 2.905156
  17  1      16.970562 29.393877 1.854862
  18  1      38.183765 29.393877 2.637874
  19  1      19.091883 33.068111 2.002018
  20  1      40.305086 33.068111 2.530800
  21  1      4.242641 0.000000 0.033797
  22  1      25.455844 0.000000 0.328932
  23  1      6.363961 3.674235 0.015993
  24  1      27.577164 3.674235 0.485102
  25  1      8.485281 7.348469 5.144273
  26  1      29.698484 7.348469 0.581726
  27  1      10.606602 11.022704 1.623672
  28  1      31.819805 11.022704 0.619795
  29  1      12.727922 14.696938 1.500703
  30  1      33.941125 14.696938 0.598698
  31  1      14.849242 18.371173 1.514656
  32  1      36.062445 18.371173 0.510801
  33  1      16.970562 22.045408 1.566767
  34  1      38.183765 22.045408 2.946545
  35  1      19.091883 25.719642 1.661692
  36  1      40.305086 25.719642 2.753430
  37  1      -0.000000 29.393877 2.024421
  38  1      21.213203 29.393877 1.813124
  39  1      2.121320 33.068111 1.953545
  40  1      23.334523 33.068111 2.015101
  41  1      8.485281 0.000000 0.101229
  42  1      29.698484 0.000000 0.396370
  43  1      10.606602 3.674235 0.206588
  44  1      31.819805 3.674235 0.501739
  45  1      12.727922 7.348469 0.583101
  46  1      33.941125 7.348469 0.539811
  47  1      14.849242 11.022704 1.074856
  48  1      36.062445 11.022704 0.520303
  49  1      16.970562 14.696938 1.234274
  50  1      38.183765 14.696938 0.444877
  51  1      19.091883 18.371173 1.325042
  52  1      40.305086 18.371173 0.321203
  53  1      0.000000 22.045408 2.183146
  54  1      21.213203 22.045408 1.418333
  55  1      2.121320 25.719642 2.057816
  56  1      23.334523 25.719642 1.556421
  57  1      4.242641 29.393877 1.982670
  58  1      25.455844 29.393877 1.789997
  59  1      6.363961 33.068111 1.961150
  60  1      27.577164 33.068111 2.082330
  61  1      12.727922 0.000000 0.193897
  62  1      33.941125 0.000000 0.489045
  63  1      14.849242 3.674235 0.397183
  64  1      36.062445 3.674235 0.518378
  65  1      16.970562 7.348469 0.689526
  66  1      38.183765 7.348469 0.496886
  67  1      19.091883 11.022704 0.923110
  68  1      40.305086 11.022704 0.421765
  69  1      0.000000 14.696938 4.902272
  70  1      21.213203 14.696938 1.061203
  71  1      2.121320 18.371173 2.158394
  72  1      23.334523 18.371173 1.154497
  73  1      4.242641 22.045408 2.034703
  74  1      25.455844 22.045408 1.245265
  75  1      6.363961 25.719642 1.959257
  76  1      27.577164 25.719642 1.404682
  77  1      8.485281 29.393877 1.939727
  78  1      29.698484 29.393877 1.896433
  79  1      10.606601 33.068111 1.977775
  80  1      31.819804 33.068111 2.272941
  81  1      16.970562 0.000000 0.261331
  82  1      38.183765 0.000000 0.556488
  83  1      19.091883 3.674235 0.464404
  84  1      40.305086 3.674235 0.526003
  85  1      0.000000 7.348469 5.060989
  86  1      21.213203 7.348469 0.666394
  87  1      2.121320 11.022704 4.922317
  88  1      23.334523 11.022704 0.817837
  89  1      4.242641 14.696938 4.729193
  90  1      25.455844 14.696938 0.912771
  91  1      6.363961 18.371173 1.968773
  92  1      27.577164 18.371173 0.964888
  93  1      8.485281 22.045408 1.880862
  94  1      29.698484 22.045408 0.978846
  95  1      10.606602 25.719642 1.859748
  96  1      31.819805 25.719642 0.855879
  97  1      12.727922 29.393877 1.897799
  98  1      33.941125 29.393877 2.531429
  99  1      14.849242 33.068111 1.994403
 100  1      36.062445 33.068111 2.463556
 101  1      2.121320 1.224733 0.861411
 102  1      23.334523 1.224733 1.232224
 103  1      4.242641 4.898967 0.802706
 104  1      25.455844 4.898967 1.394725
 105  1      6.363961 8.573202 0.632791
 106  1      27.577164 8.573202 1.507809
 107  1      8.485281 12.247436 2.792778
 108  1      29.698484 12.247436 1.565186
 109  1      10.606602 15.921671 2.568394
 110  1      31.819805 15.921671 1.564521
 111  1      12.727922 19.595906 2.524038
 112  1      33.941125 19.595906 1.489864
 113  1      14.849242 23.270140 2.548144
 114  1      36.062445 23.270140 1.296019
 115  1      16.970562 26.944375 2.624990
 116  1      38.183765 26.944375 3.624506
 117  1      19.091883 30.618609 2.756095
 118  1      40.305086 30.618609 3.459496
 119  1      21.213203 34.292844 2.932457
 120  1      -0.000000 34.292844 3.384848
 121  1      6.363961 1.224733 0.919254
 122  1      27.577164 1.224733 1.268124
 123  1      8.485281 4.898967 0.941558
 124  1      29.698484 4.898967 1.388605
 125  1      10.606602 8.573202 1.151313
 126  1      31.819805 8.573202 1.446471
 127  1      12.727922 12.247436 2.225967
 128  1      33.941125 12.247436 1.445809
 129  1      14.849242 15.921671 2.278410
 130  1      36.062445 15.921671 1.385103
 131  1      16.970562 19.595906 2.333608
 132  1      38.183765 19.595906 1.261464
 133  1      19.091883 23.270140 2.414748
 134  1      40.305086 23.270140 3.690547
 135  1      0.000000 26.944375 2.946647
 136  1      21.213203 26.944375 2.544265
 137  1      2.121320 30.618609 2.852839
 138  1      23.334523 30.618609 2.739778
 139  1      4.242641 34.292844 2.812847
 140  1      25.455844 34.292844 2.968988
 141  1      10.606602 1.224733 1.033265
 142  1      31.819805 1.224733 1.328411
 143  1      12.727922 4.898967 1.243020
 144  1      33.941125 4.898967 1.386279
 145  1      14.849242 8.573202 1.669835
 146  1      36.062445 8.573202 1.385136
 147  1      16.970562 12.247436 1.944481
 148  1      38.183765 12.247436 1.328525
 149  1      19.091883 15.921671 2.071771
 150  1      40.305086 15.921671 1.220963
 151  1      0.000000 19.595906 3.090432
 152  1      21.213203 19.595906 2.164408
 153  1      2.121320 23.270140 2.958125
 154  1      23.334523 23.270140 2.272668
 155  1      4.242641 26.944375 2.865910
 156  1      25.455844 26.944375 2.456734
 157  1      6.363961 30.618609 2.827473
 158  1      27.577164 30.618609 2.784054
 159  1      8.485281 34.292844 2.843133
 160  1      29.698484 34.292844 3.075132
 161  1      14.849242 1.224733 1.147276
 162  1      36.062445 1.224733 1.388701
 163  1      16.970562 4.898967 1.381874
 164  1      38.183765 4.898967 1.380165
 165  1      19.091883 8.573202 1.628493
 166  1      40.305086 8.573202 1.323564
 167  1      0.000000 12.247436 0.620121
 168  1      21.213203 12.247436 1.800558
 169  1      2.121320 15.921671 0.466949
 170  1      23.334523 15.921671 1.908094
 171  1      4.242641 19.595906 2.921223
 172  1      25.455844 19.595906 1.985630
 173  1      6.363961 23.270140 2.824720
 174  1      27.577164 23.270140 2.069108
 175  1      8.485281 26.944375 2.785700
 176  1      29.698484 26.944375 2.309841
 177  1      10.606602 30.618609 2.804461
 178  1      31.819805 30.618609 3.099628
 179  1      12.727922 34.292844 2.883812
 180  1      33.941125 34.292844 3.242142
 181  1      19.091883 1.224733 1.205121
 182  1      40.305086 1.224733 1.424608
 183  1      0.000000 4.898967 0.782471
 184  1      21.213203 4.898967 1.402114
 185  1      2.121320 8.573202 0.674137
 186  1      23.334523 8.573202 1.569389
 187  1      4.242641 12.247436 0.476192
 188  1      25.455844 12.247436 1.682477
 189  1      6.363961 15.921671 2.858379
 190  1      27.577164 15.921671 1.743943
 191  1      8.485281 19.595906 2.730789
 192  1      29.698484 19.595906 1.757223
 193  1      10.606602 23.270140 2.686431
 194  1      31.819805 23.270140 1.682562
 195  1      12.727922 26.944375 2.705195
 196  1      33.941125 26.944375 3.771391
 197  1      14.849242 30.618609 2.781452
 198  1      36.062445 30.618609 3.415206
 199  1      16.970562 34.292844 2.914104
 200  1      38.183765 34.292844 3.348297
 201  1      4.242641 2.449502 1.729335
 202  1      25.455844 2.449502 2.163468
 203  1      6.363961 6.123737 1.662427
 204  1      27.577164 6.123737 2.296140
 205  1      8.485281 9.797971 1.306242
 206  1      29.698484 9.797971 2.372415
 207  1      10.606602 13.472206 3.395069
 208  1      31.819805 13.472206 2.391195
 209  1      12.727922 17.146440 3.320403
 210  1      33.941125 17.146440 2.346850
 211  1      14.849242 20.820675 3.333675
 212  1      36.062445 20.820675 2.219271
 213  1      16.970562 24.494910 3.395133
 214  1      38.183765 24.494910 4.601467
 215  1      19.091883 28.169144 3.508209
 216  1      40.305086 28.169144 4.403529
 217  1      0.000000 31.843379 3.704857
 218  1      21.213203 31.843379 3.675471
 219  1      2.121320 35.517613 3.653002
 220  1      23.334523 35.517613 3.872447
 221  1      8.485281 2.449502 1.835466
 222  1      29.698484 2.449502 2.193766
 223  1      10.606602 6.123737 1.977986
 224  1      31.819805 6.123737 2.273141
 225  1      12.727922 9.797971 2.767776
 226  1      33.941125 9.797971 2.291923
 227  1      14.849242 13.472206 3.008510
 228  1      36.062445 13.472206 2.252922
 229  1      16.970562 17.146440 3.091986
 230  1      38.183765 17.146440 2.156436
 231  1      19.091883 20.820675 3.169519
 232  1      40.305086 20.820675 4.610725
 233  1      -0.000000 24.494910 3.867219
 234  1      21.213203 24.494910 3.277049
 235  1      2.121320 28.169144 3.754085
 236  1      23.334523 28.169144 3.449106
 237  1      4.242641 31.843379 3.697456
 238  1      25.455844 31.843379 3.695715
 239  1      6.363961 35.517613 3.688889
 240  1      27.577164 35.517613 3.930302
 241  1      12.727922 2.449502 2.002458
 242  1      33.941125 2.449502 2.234457
 243  1      14.849242 6.123737 2.293546
 244  1      36.062445 6.123737 2.250144
 245  1      16.970562 9.797971 2.620872
 246  1      38.183765 9.797971 2.211732
 247  1      19.091883 13.472206 2.804943
 248  1      40.305086 13.472206 2.119540
 249  1      -0.000000 17.146440 1.396911
 250  1      21.213203 17.146440 2.913205
 251  1      2.121320 20.820675 3.856707
 252  1      23.334523 20.820675 3.005843
 253  1      4.242641 24.494910 3.749124
 254  1      25.455844 24.494910 3.133131
 255  1      6.363961 28.169144 3.692492
 256  1      27.577164 28.169144 3.407772
 257  1      8.485281 31.843379 3.691323
 258  1      29.698484 31.843379 3.834581
 259  1      10.606602 35.517613 3.749164
 260  1      31.819805 35.517613 4.044328
 261  1      16.970562 2.449502 2.108591
 262  1      38.183765 2.449502 2.264759
 263  1      19.091883 6.123737 2.337813
 264  1      40.305086 6.123737 2.224799
 265  1      0.000000 9.797971 1.540690
 266  1      21.213203 9.797971 2.533337
 267  1      2.121320 13.472206 1.387126
 268  1      23.334523 13.472206 2.662862
 269  1      4.242641 17.146440 3.816197
 270  1      25.455844 17.146440 2.744008
 271  1      6.363961 20.820675 3.692544
 272  1      27.577164 20.820675 2.799210
 273  1      8.485281 24.494910 3.631821
 274  1      29.698484 24.494910 2.851655
 275  1      10.606602 28.169144 3.631141
 276  1      31.819805 28.169144 3.926309
 277  1      12.727922 31.843379 3.688985
 278  1      33.941125 31.843379 4.136060
 279  1      14.849242 35.517613 3.809444
 280  1      36.062445 35.517613 4.158359
 281  1      21.213203 2.449502 2.145116
 282  1      0.000000 2.449502 2.283121
 283  1      2.121320 6.123737 1.618164
 284  1      23.334523 6.123737 2.321494
 285  1      4.242641 9.797971 1.453149
 286  1      25.455844 9.797971 2.452613
 287  1      6.363961 13.472206 3.781630
 288  1      27.577164 13.472206 2.529470
 289  1      8.485281 17.146440 3.587777
 290  1      29.698484 17.146440 2.553587
 291  1      10.606601 20.820675 3.513108
 292  1      31.819804 20.820675 2.509239
 293  1      12.727922 24.494910 3.512430
 294  1      33.941125 24.494910 2.284859
 295  1      14.849242 28.169144 3.569793
 296  1      36.062445 28.169144 4.444850
 297  1      16.970562 31.843379 3.682859
 298  1      38.183765 31.843379 4.274936
 299  1      19.091883 35.517613 3.845341
 300  1      40.305086 35.517613 4.216229
 301  2      0.000000 0.000000 2.598076
 302  2      21.213203 0.000000 2.893207
 303  2      2.121320 3.674235 2.546851
 304  2      23.334523 3.674235 3.075560
 305  2      4.242641 7.348469 2.439775
 306  2      25.455844 7.348469 3.222732
 307  2      6.363961 11.022704 2.172490
 308  2      27.577164 11.022704 3.317366
 309  2      8.485281 14.696938 4.462760
 310  2      29.698484 14.696938 3.357019
 311  2      10.606602 18.371173 4.339789
 312  2      31.819805 18.371173 3.335919
 313  2      12.727922 22.045408 4.318678
 314  2      33.941125 22.045408 3.212956
 315  2      14.849242 25.719642 4.358319
 316  2      36.062445 25.719642 0.307080
 317  2      16.970562 29.393877 4.452938
 318  2      38.183765 29.393877 0.039798
 319  2      19.091883 33.068111 4.600094
 320  2      40.305086 33.068111 5.128876
 321  2      4.242641 0.000000 2.631873
 322  2      25.455844 0.000000 2.927008
 323  2      6.363961 3.674235 2.614069
 324  2      27.577164 3.674235 3.083178
 325  2      8.485281 7.348469 2.546197
 326  2      29.698484 7.348469 3.179802
 327  2      10.606602 11.022704 4.221748
 328  2      31.819805 11.022704 3.217871
 329  2      12.727922 14.696938 4.098779
 330  2      33.941125 14.696938 3.196774
 331  2      14.849242 18.371173 4.112732
 332  2      36.062445 18.371173 3.108877
 333  2      16.970562 22.045408 4.164843
 334  2      38.183765 22.045408 0.348469
 335  2      19.091883 25.719642 4.259768
 336  2      40.305086 25.719642 0.155354
 337  2      0.000000 29.393877 4.622497
 338  2      21.213203 29.393877 4.411200
 339  2      2.121320 33.068111 4.551621
 340  2      23.334523 33.068111 4.613177
 341  2      8.485281 0.000000 2.699305
 342  2      29.698484 0.000000 2.994446
 343  2      10.606602 3.674235 2.804664
 344  2      31.819805 3.674235 3.099815
 345  2      12.727922 7.348469 3.181177
 346  2      33.941125 7.348469 3.137887
 347  2      14.849242 11.022704 3.672932
 348  2      36.062445 11.022704 3.118379
 349  2      16.970562 14.696938 3.832350
 350  2      38.183765 14.696938 3.042953
 351  2      19.091883 18.371173 3.923118
 352  2      40.305086 18.371173 2.919279
 353  2      0.000000 22.045408 4.781222
 354  2      21.213203 22.045408 4.016409
 355  2      2.121320 25.719642 4.655892
 356  2      23.334523 25.719642 4.154497
 357  2      4.242641 29.393877 4.580746
 358  2      25.455844 29.393877 4.388073
 359  2      6.363961 33.068111 4.559226
 360  2      27.577164 33.068111 4.680406
 361  2      12.727922 0.000000 2.791973
 362  2      33.941125 0.000000 3.087121
 363  2      14.849242 3.674235 2.995259
 364  2      36.062445 3.674235 3.116454
 365  2      16.970562 7.348469 3.287602
 366  2      38.183765 7.348469 3.094962
 367  2      19.091883 11.022704 3.521186
 368  2      40.305086 11.022704 3.019841
 369  2      0.000000 14.696938 2.304196
 370  2      21.213203 14.696938 3.659279
 371  2      2.121320 18.371173 4.756470
 372  2      23.334523 18.371173 3.752573
 373  2      4.242641 22.045408 4.632779
 374  2      25.455844 22.045408 3.843341
 375  2      6.363961 25.719642 4.557333
 376  2      27.577164 25.719642 4.002758
 377  2      8.485281 29.393877 4.537803
 378  2      29.698484 29.393877 4.494509
 379  2      10.606601 33.068111 4.575851
 380  2      31.819804 33.068111 4.871017
 381  2      16.970562 0.000000 2.859407
 382  2      38.183765 0.000000 3.154564
 383  2      19.091883 3.674235 3.062480
 384  2      40.305086 3.674235 3.124079
 385  2      0.000000 7.348469 2.462913
 386  2      21.213203 7.348469 3.264470
 387  2      2.121320 11.022704 2.324241
 388  2      23.334523 11.022704 3.415913
 389  2      4.242641 14.696938 2.131117
 390  2      25.455844 14.696938 3.510847
 391  2      6.363961 18.371173 4.566849
 392  2      27.577164 18.371173 3.562964
 393  2      8.485281 22.045408 4.478938
 394  2      29.698484 22.045408 3.576922
 395  2      10.606602 25.719642 4.457824
 396  2      31.819805 25.719642 3.453955
 397  2      12.727922 29.393877 4.495875
 398  2      33.941125 29.393877 5.129505
 399  2      14.849242 33.068111 4.592479
 400  2      36.062445 33.068111 5.061632
 401  2      2.121320 1.224733 3.459487
 402  2      23.334523 1.224733 3.830300
 403  2      4.242641 4.898967 3.400782
 404  2      25.455844 4.898967 3.992801
 405  2      6.363961 8.573202 3.230867
 406  2      27.577164 8.573202 4.105885
 407  2      8.485281 12.247436 0.194702
 408  2      29.698484 12.247436 4.163262
 409  2      10.606602 15.921671 5.166470
 410  2      31.819805 15.921671 4.162597
 411  2      12.727922 19.595906 5.122114
 412  2      33.941125 19.595906 4.087940
 413  2      14.849242 23.270140 5.146220
 414  2      36.062445 23.270140 3.894095
 415  2      16.970562 26.944375 0.026914
 416  2      38.183765 26.944375 1.026430
 417  2      19.091883 30.618609 0.158019
 418  2      40.305086 30.618609 0.861420
 419  2      21.213203 34.292844 0.334381
 420  2      -0.000000 34.292844 0.786772
 421  2      6.363961 1.224733 3.517330
 422  2      27.577164 1.224733 3.866200
 423  2      8.485281 4.898967 3.539634
 424  2      29.698484 4.898967 3.986681
 425  2      10.606602 8.573202 3.749389
 426  2      31.819805 8.573202 4.044547
 427  2      12.727922 12.247436 4.824043
 428  2      33.941125 12.247436 4.043885
 429  2      14.849242 15.921671 4.876486
 430  2      36.062445 15.921671 3.983179
 431  2      16.970562 19.595906 4.931684
 432  2      38.183765 19.595906 3.859540
 433  2      19.091883 23.270140 5.012824
 434  2      40.305086 23.270140 1.092471
 435  2      -0.000000 26.944375 0.348571
 436  2      21.213203 26.944375 5.142341
 437  2      2.121320 30.618609 0.254763
 438  2      23.334523 30.618609 0.141702
 439  2      4.242641 34.292844 0.214771
 440  2      25.455844 34.292844 0.370912
 441  2      10.606602 1.224733 3.631341
 442  2      31.819805 1.224733 3.926487
 443  2      12.727922 4.898967 3.841096
 444  2      33.941125 4.898967 3.984355
 445  2      14.849242 8.573202 4.267911
 446  2      36.062445 8.573202 3.983212
 447  2      16.970562 12.247436 4.542557
 448  2      38.183765 12.247436 3.926601
 449  2      19.091883 15.921671 4.669847
 450  2      40.305086 15.921671 3.819039
 451  2      -0.000000 19.595906 0.492356
 452  2      21.213203 19.595906 4.762484
 453  2      2.121320 23.270140 0.360049
 454  2      23.334523 23.270140 4.870744
 455  2      4.242641 26.944375 0.267834
 456  2      25.455844 26.944375 5.054810
 457  2      6.363961 30.618609 0.229397
 458  2      27.577164 30.618609 0.185978
 459  2      8.485281 34.292844 0.245057
 460  2      29.698484 34.292844 0.477056
 461  2      14.849242 1.224733 3.745352
 462  2      36.062445 1.224733 3.986777
 463  2      16.970562 4.898967 3.979950
 464  2      38.183765 4.898967 3.978241
 465  2      19.091883 8.573202 4.226569
 466  2      40.305086 8.573202 3.921640
 467  2      0.000000 12.247436 3.218197
 468  2      21.213203 12.247436 4.398634
 469  2      2.121320 15.921671 3.065025
 470  2      23.334523 15.921671 4.506170
 471  2      4.242641 19.595906 0.323147
 472  2      25.455844 19.595906 4.583706
 473  2      6.363961 23.270140 0.226644
 474  2      27.577164 23.270140 4.667184
 475  2      8.485281 26.944375 0.187624
 476  2      29.698484 26.944375 4.907917
 477  2      10.606602 30.618609 0.206385
 478  2      31.819805 30.618609 0.501552
 479  2      12.727922 34.292844 0.285736
 480  2      33.941125 34.292844 0.644066
 481  2      19.091883 1.224733 3.803197
 482  2      40.305086 1.224733 4.022684
 483  2      0.000000 4.898967 3.380547
 484  2      21.213203 4.898967 4.000190
 485  2      2.121320 8.573202 3.272213
 486  2      23.334523 8.573202 4.167465
 487  2      4.242641 12.247436 3.074268
 488  2      25.455844 12.247436 4.280553
 489  2      6.363961 15.921671 0.260303
 490  2      27.577164 15.921671 4.342019
 491  2      8.485281 19.595906 0.132713
 492  2      29.698484 19.595906 4.355299
 493  2      10.606602 23.270140 0.088355
 494  2      31.819805 23.270140 4.280638
 495  2      12.727922 26.944375 0.107119
 496  2      33.941125 26.944375 1.173315
 497  2      14.849242 30.618609 0.183376
 498  2      36.062445 30.618609 0.817130
 499  2      16.970562 34.292844 0.316028
 500  2      38.183765 34.292844 0.750221
 501  2      4.242641 2.449502 4.327411
 502  2      25.455844 2.449502 4.761544
 503  2      6.363961 6.123737 4.260503
 504  2      27.577164 6.123737 4.894216
 505  2      8.485281 9.797971 3.904318
 506  2      29.698484 9.797971 4.970491
 507  2      10.606602 13.472206 0.796993
 508  2      31.819805 13.472206 4.989271
 509  2      12.727922 17.146440 0.722327
 510  2      33.941125 17.146440 4.944926
 511  2      14.849242 20.820675 0.735599
 512  2      36.062445 20.820675 4.817347
 513  2      16.970562 24.494910 0.797057
 514  2      38.183765 24.494910 2.003391
 515  2      19.091883 28.169144 0.910133
 516  2      40.305086 28.169144 1.805453
 517  2      -0.000000 31.843379 1.106781
 518  2      21.213203 31.843379 1.077395
 519  2      2.121320 35.517613 1.054926
 520  2      23.334523 35.517613 1.274371
 521  2      8.485281 2.449502 4.433542
 522  2      29.698484 2.449502 4.791842
 523  2      10.606602 6.123737 4.576062
 524  2      31.819805 6.123737 4.871217
 525  2      12.727922 9.797971 0.169700
 526  2      33.941125 9.797971 4.889999
 527  2      14.849242 13.472206 0.410434
 528  2      36.062445 13.472206 4.850998
 529  2      16.970562 17.146440 0.493910
 530  2      38.183765 17.146440 4.754512
 531  2      19.091883 20.820675 0.571443
 532  2      40.305086 20.820675 2.012649
 533  2      -0.000000 24.494910 1.269143
 534  2      21.213203 24.494910 0.678973
 535  2      2.121320 28.169144 1.156009
 536  2      23.334523 28.169144 0.851030
 537  2      4.242641 31.843379 1.099380
 538  2      25.455844 31.843379 1.097639
 539  2      6.363961 35.517613 1.090813
 540  2      27.577164 35.517613 1.332226
 541  2      12.727922 2.449502 4.600534
 542  2      33.941125 2.449502 4.832533
 543  2      14.849242 6.123737 4.891622
 544  2      36.062445 6.123737 4.848220
 545  2      16.970562 9.797971 0.022796
 546  2      38.183765 9.797971 4.809808
 547  2      19.091883 13.472206 0.206867
 548  2      40.305086 13.472206 4.717616
 549  2      0.000000 17.146440 3.994987
 550  2      21.213203 17.146440 0.315129
 551  2      2.121320 20.820675 1.258631
 552  2      23.334523 20.820675 0.407767
 553  2      4.242641 24.494910 1.151048
 554  2      25.455844 24.494910 0.535055
 555  2      6.363961 28.169144 1.094416
 556  2      27.577164 28.169144 0.809696
 557  2      8.485281 31.843379 1.093247
 558  2      29.698484 31.843379 1.236505
 559  2      10.606602 35.517613 1.151088
 560  2      31.819805 35.517613 1.446252
 561  2      16.970562 2.449502 4.706667
 562  2      38.183765 2.449502 4.862835
 563  2      19.091883 6.123737 4.935889
 564  2      40.305086 6.123737 4.822875
 565  2      0.000000 9.797971 4.138766
 566  2      21.213203 9.797971 5.131413
 567  2      2.121320 13.472206 3.985202
 568  2      23.334523 13.472206 0.064786
 569  2      4.242641 17.146440 1.218121
 570  2      25.455844 17.146440 0.145932
 571  2      6.363961 20.820675 1.094468
 572  2      27.577164 20.820675 0.201134
 573  2      8.485281 24.494910 1.033745
 574  2      29.698484 24.494910 0.253579
 575  2      10.606602 28.169144 1.033065
 576  2      31.819805 28.169144 1.328233
 577  2      12.727922 31.843379 1.090909
 578  2      33.941125 31.843379 1.537984
 579  2      14.849242 35.517613 1.211368
 580  2      36.062445 35.517613 1.560283
 581  2      21.213203 2.449502 4.743192
 582  2      0.000000 2.449502 4.881197
 583  2      2.121320 6.123737 4.216240
 584  2      23.334523 6.123737 4.919570
 585  2      4.242641 9.797971 4.051225
 586  2      25.455844 9.797971 5.050689
 587  2      6.363961 13.472206 1.183554
 588  2      27.577164 13.472206 5.127546
 589  2      8.485281 17.146440 0.989701
 590  2      29.698484 17.146440 5.151663
 591  2      10.606601 20.820675 0.915032
 592  2      31.819804 20.820675 5.107315
 593  2      12.727922 24.494910 0.914354
 594  2      33.941125 24.494910 4.882935
 595  2      14.849242 28.169144 0.971717
 596  2      36.062445 28.169144 1.846774
 597  2      16.970562 31.843379 1.084783
 598  2      38.183765 31.843379 1.676860
 599  2      19.091883 35.517613 1.247265
 600  2      40.305086 35.517613 1.618153
