# LAMMPS data file written by OVITO
840 atoms
1 atom types
0.0 24.8901672 xlo xhi
0.0 24.6399994 ylo yhi
0.0 14.9340992 zlo zhi

Atoms

1 1 0.0 0.0 2.4904351
2 1 0.0 0.0 4.9794518
3 1 0.0 0.0 7.4684682
4 1 0.0 0.0 9.9574852
5 1 0.0 0.0 12.4465018
6 1 0.0 0.0 0.0014186
7 1 0.0 3.52 2.4678016
8 1 0.0 3.52 4.9568182
9 1 0.0 3.52 7.4458347
10 1 0.0 3.52 9.9348516
11 1 0.0 3.52 12.4238682
12 1 0.0 3.52 14.9128858
13 1 0.0 7.04 2.4477482
14 1 0.0 7.04 4.9367648
15 1 0.0 7.04 7.4257813
16 1 0.0 7.04 9.9147978
17 1 0.0 7.04 12.4038153
18 1 0.0 7.04 14.8928308
19 1 0.0 10.5599995 2.4133577
20 1 0.0 10.5599995 4.9023744
21 1 0.0 10.5599995 7.3913913
22 1 0.0 10.5599995 9.8804084
23 1 0.0 10.5599995 12.3694239
24 1 0.0 10.5599995 14.8584414
25 1 0.0 14.0799999 14.7966519
26 1 0.0 14.0799999 2.3515678
27 1 0.0 14.0799999 4.8405844
28 1 0.0 14.0799999 7.3296008
29 1 0.0 14.0799999 9.8186178
30 1 0.0 14.0799999 12.3076334
31 1 0.0 17.6000004 14.6876221
32 1 0.0 17.6000004 2.2425392
33 1 0.0 17.6000004 4.731556
34 1 0.0 17.6000004 7.220573
35 1 0.0 17.6000004 9.709589
36 1 0.0 17.6000004 12.1986055
37 1 0.0 21.1199989 4.6103268
38 1 0.0 21.1199989 7.0993438
39 1 0.0 21.1199989 9.5883599
40 1 0.0 21.1199989 12.0773764
41 1 0.0 21.1199989 14.5663929
42 1 0.0 21.1199989 2.1213102
43 1 4.9780336 0.0 2.5134104
44 1 4.9780336 0.0 5.0024271
45 1 4.9780336 0.0 7.4914437
46 1 4.9780336 0.0 9.9804602
47 1 4.9780336 0.0 12.4694767
48 1 4.9780336 0.0 0.0243936
49 1 4.9780336 3.52 2.4871195
50 1 4.9780336 3.52 4.9761358
51 1 4.9780336 3.52 7.4651523
52 1 4.9780336 3.52 9.9541694
53 1 4.9780336 3.52 12.4431858
54 1 4.9780336 3.52 14.9322034
55 1 4.9780336 7.04 2.3732474
56 1 4.9780336 7.04 4.8622642
57 1 4.9780336 7.04 7.3512807
58 1 4.9780336 7.04 9.8402968
59 1 4.9780336 7.04 12.3293133
60 1 4.9780336 7.04 14.8183308
61 1 4.9780336 10.5599995 14.6392336
62 1 4.9780336 10.5599995 2.1941497
63 1 4.9780336 10.5599995 4.6831665
64 1 4.9780336 10.5599995 7.1721835
65 1 4.9780336 10.5599995 9.6611996
66 1 4.9780336 10.5599995 12.1502161
67 1 4.9780336 14.0799999 4.5894957
68 1 4.9780336 14.0799999 7.0785122
69 1 4.9780336 14.0799999 9.5675297
70 1 4.9780336 14.0799999 12.0565453
71 1 4.9780336 14.0799999 14.5455628
72 1 4.9780336 14.0799999 2.1004791
73 1 4.9780336 17.6000004 4.5645285
74 1 4.9780336 17.6000004 7.053545
75 1 4.9780336 17.6000004 9.5425616
76 1 4.9780336 17.6000004 12.0315781
77 1 4.9780336 17.6000004 14.5205937
78 1 4.9780336 17.6000004 2.0755117
79 1 4.9780336 21.1199989 4.5648837
80 1 4.9780336 21.1199989 7.0539002
81 1 4.9780336 21.1199989 9.5429173
82 1 4.9780336 21.1199989 12.0319338
83 1 4.9780336 21.1199989 14.5209503
84 1 4.9780336 21.1199989 2.0758672
85 1 9.9560672 0.0 2.5785232
86 1 9.9560672 0.0 5.0675397
87 1 9.9560672 0.0 7.5565567
88 1 9.9560672 0.0 10.0455732
89 1 9.9560672 0.0 12.5345898
90 1 9.9560672 0.0 0.0895066
91 1 9.9560672 3.52 0.1845782
92 1 9.9560672 3.52 2.673595
93 1 9.9560672 3.52 5.1626115
94 1 9.9560672 3.52 7.651628
95 1 9.9560672 3.52 10.140645
96 1 9.9560672 3.52 12.6296616
97 1 9.9560672 7.04 0.2579562
98 1 9.9560672 7.04 2.7469728
99 1 9.9560672 7.04 5.2359891
100 1 9.9560672 7.04 7.7250057
101 1 9.9560672 7.04 10.2140226
102 1 9.9560672 7.04 12.7030392
103 1 9.9560672 10.5599995 4.1143274
104 1 9.9560672 10.5599995 6.603344
105 1 9.9560672 10.5599995 9.0923605
106 1 9.9560672 10.5599995 11.5813771
107 1 9.9560672 10.5599995 14.0703945
108 1 9.9560672 10.5599995 1.6253107
109 1 9.9560672 14.0799999 4.2193184
110 1 9.9560672 14.0799999 6.7083349
111 1 9.9560672 14.0799999 9.1973515
112 1 9.9560672 14.0799999 11.686369
113 1 9.9560672 14.0799999 14.1753855
114 1 9.9560672 14.0799999 1.7303018
115 1 9.9560672 17.6000004 4.3590164
116 1 9.9560672 17.6000004 6.8480334
117 1 9.9560672 17.6000004 9.3370495
118 1 9.9560672 17.6000004 11.826067
119 1 9.9560672 17.6000004 14.3150826
120 1 9.9560672 17.6000004 1.87
121 1 9.9560672 21.1199989 4.5078211
122 1 9.9560672 21.1199989 6.9968376
123 1 9.9560672 21.1199989 9.4858542
124 1 9.9560672 21.1199989 11.9748708
125 1 9.9560672 21.1199989 14.4638872
126 1 9.9560672 21.1199989 2.0188046
127 1 14.9340992 0.0 0.2153923
128 1 14.9340992 0.0 2.7044089
129 1 14.9340992 0.0 5.1934257
130 1 14.9340992 0.0 7.6824422
131 1 14.9340992 0.0 10.1714592
132 1 14.9340992 0.0 12.6604748
133 1 14.9340992 3.52 2.8925954
134 1 14.9340992 3.52 5.3816118
135 1 14.9340992 3.52 7.8706288
136 1 14.9340992 3.52 10.3596449
137 1 14.9340992 3.52 12.8486614
138 1 14.9340992 3.52 0.4035786
139 1 14.9340992 7.04 3.1510582
140 1 14.9340992 7.04 5.6400748
141 1 14.9340992 7.04 8.1290913
142 1 14.9340992 7.04 10.6181088
143 1 14.9340992 7.04 13.1071243
144 1 14.9340992 7.04 0.6620416
145 1 14.9340992 10.5599995 3.4822726
146 1 14.9340992 10.5599995 5.9712892
147 1 14.9340992 10.5599995 8.4603062
148 1 14.9340992 10.5599995 10.9493228
149 1 14.9340992 10.5599995 13.4383393
150 1 14.9340992 10.5599995 0.993256
151 1 14.9340992 14.0799999 3.7680156
152 1 14.9340992 14.0799999 6.2570319
153 1 14.9340992 14.0799999 8.746049
154 1 14.9340992 14.0799999 11.2350655
155 1 14.9340992 14.0799999 13.724082
156 1 14.9340992 14.0799999 1.2789991
157 1 14.9340992 17.6000004 4.1214275
158 1 14.9340992 17.6000004 6.6104436
159 1 14.9340992 17.6000004 9.0994606
160 1 14.9340992 17.6000004 11.5884772
161 1 14.9340992 17.6000004 14.0774937
162 1 14.9340992 17.6000004 1.6324107
163 1 14.9340992 21.1199989 4.527019
164 1 14.9340992 21.1199989 7.0160356
165 1 14.9340992 21.1199989 9.5050526
166 1 14.9340992 21.1199989 11.9940692
167 1 14.9340992 21.1199989 14.4830857
168 1 14.9340992 21.1199989 2.0380025
169 1 19.9121342 0.0 2.8925108
170 1 19.9121342 0.0 5.3815274
171 1 19.9121342 0.0 7.870544
172 1 19.9121342 0.0 10.359561
173 1 19.9121342 0.0 12.8485766
174 1 19.9121342 0.0 0.4034941
175 1 19.9121342 3.52 2.9630938
176 1 19.9121342 3.52 5.4521103
177 1 19.9121342 3.52 7.9411268
178 1 19.9121342 3.52 10.4301434
179 1 19.9121342 3.52 12.9191608
180 1 19.9121342 3.52 0.4740772
181 1 19.9121342 7.04 3.0627379
182 1 19.9121342 7.04 5.5517545
183 1 19.9121342 7.04 8.0407715
184 1 19.9121342 7.04 10.529788
185 1 19.9121342 7.04 13.0188046
186 1 19.9121342 7.04 0.5737213
187 1 19.9121342 10.5599995 3.1665075
188 1 19.9121342 10.5599995 5.6555243
189 1 19.9121342 10.5599995 8.1445408
190 1 19.9121342 10.5599995 10.6335573
191 1 19.9121342 10.5599995 13.1225739
192 1 19.9121342 10.5599995 0.6774909
193 1 19.9121342 14.0799999 3.2301736
194 1 19.9121342 14.0799999 5.7191906
195 1 19.9121342 14.0799999 8.2082071
196 1 19.9121342 14.0799999 10.6972237
197 1 19.9121342 14.0799999 13.1862402
198 1 19.9121342 14.0799999 0.7411571
199 1 19.9121342 17.6000004 0.5521367
200 1 19.9121342 17.6000004 3.0411534
201 1 19.9121342 17.6000004 5.53017
202 1 19.9121342 17.6000004 8.019186
203 1 19.9121342 17.6000004 10.5082035
204 1 19.9121342 17.6000004 12.99722
205 1 19.9121342 21.1199989 14.9090806
206 1 19.9121342 21.1199989 2.4639964
207 1 19.9121342 21.1199989 4.9530134
208 1 19.9121342 21.1199989 7.4420295
209 1 19.9121342 21.1199989 9.9310466
210 1 19.9121342 21.1199989 12.420063
211 1 1.2445101 1.76 3.7268002
212 1 1.2445101 1.76 6.2158165
213 1 1.2445101 1.76 8.7048331
214 1 1.2445101 1.76 11.1938505
215 1 1.2445101 1.76 13.6828661
216 1 1.2445101 1.76 1.2377833
217 1 1.2445101 5.2799997 3.6926596
218 1 1.2445101 5.2799997 6.1816759
219 1 1.2445101 5.2799997 8.6706925
220 1 1.2445101 5.2799997 11.159709
221 1 1.2445101 5.2799997 13.6487265
222 1 1.2445101 5.2799997 1.203643
223 1 1.2445101 8.8000002 3.6384657
224 1 1.2445101 8.8000002 6.1274824
225 1 1.2445101 8.8000002 8.616499
226 1 1.2445101 8.8000002 11.1055155
227 1 1.2445101 8.8000002 13.594532
228 1 1.2445101 8.8000002 1.149449
229 1 1.2445101 12.3199997 1.0808229
230 1 1.2445101 12.3199997 3.5698395
231 1 1.2445101 12.3199997 6.0588565
232 1 1.2445101 12.3199997 8.5478735
233 1 1.2445101 12.3199997 11.0368891
234 1 1.2445101 12.3199997 13.5259066
235 1 1.2445101 15.8400002 1.0027071
236 1 1.2445101 15.8400002 3.491724
237 1 1.2445101 15.8400002 5.9807406
238 1 1.2445101 15.8400002 8.4697571
239 1 1.2445101 15.8400002 10.9587736
240 1 1.2445101 15.8400002 13.4477902
241 1 1.2445101 19.3600006 5.8897906
242 1 1.2445101 19.3600006 8.3788071
243 1 1.2445101 19.3600006 10.8678236
244 1 1.2445101 19.3600006 13.3568411
245 1 1.2445101 19.3600006 0.9117574
246 1 1.2445101 19.3600006 3.400774
247 1 1.2445101 22.8799992 5.8188343
248 1 1.2445101 22.8799992 8.3078509
249 1 1.2445101 22.8799992 10.7968674
250 1 1.2445101 22.8799992 13.2858849
251 1 1.2445101 22.8799992 0.8408014
252 1 1.2445101 22.8799992 3.329818
253 1 6.2225433 1.76 3.7703843
254 1 6.2225433 1.76 6.2594013
255 1 6.2225433 1.76 8.7484179
256 1 6.2225433 1.76 11.2374344
257 1 6.2225433 1.76 13.7264509
258 1 6.2225433 1.76 1.281368
259 1 6.2225433 5.2799997 3.7111502
260 1 6.2225433 5.2799997 6.2001667
261 1 6.2225433 5.2799997 8.6891833
262 1 6.2225433 5.2799997 11.1781998
263 1 6.2225433 5.2799997 13.6672163
264 1 6.2225433 5.2799997 1.2221334
265 1 6.2225433 8.8000002 0.993594
266 1 6.2225433 8.8000002 3.4826105
267 1 6.2225433 8.8000002 5.9716272
268 1 6.2225433 8.8000002 8.4606438
269 1 6.2225433 8.8000002 10.9496604
270 1 6.2225433 8.8000002 13.4386769
271 1 6.2225433 12.3199997 5.7864542
272 1 6.2225433 12.3199997 8.2754707
273 1 6.2225433 12.3199997 10.7644873
274 1 6.2225433 12.3199997 13.2535038
275 1 6.2225433 12.3199997 0.8084208
276 1 6.2225433 12.3199997 3.2974374
277 1 6.2225433 15.8400002 5.7538133
278 1 6.2225433 15.8400002 8.2428293
279 1 6.2225433 15.8400002 10.7318468
280 1 6.2225433 15.8400002 13.2208634
281 1 6.2225433 15.8400002 0.7757799
282 1 6.2225433 15.8400002 3.2647965
283 1 6.2225433 19.3600006 5.776598
284 1 6.2225433 19.3600006 8.2656145
285 1 6.2225433 19.3600006 10.754632
286 1 6.2225433 19.3600006 13.2436476
287 1 6.2225433 19.3600006 0.7985648
288 1 6.2225433 19.3600006 3.2875815
289 1 6.2225433 22.8799992 5.8097139
290 1 6.2225433 22.8799992 8.2987309
291 1 6.2225433 22.8799992 10.7877474
292 1 6.2225433 22.8799992 13.2767639
293 1 6.2225433 22.8799992 0.831681
294 1 6.2225433 22.8799992 3.3206976
295 1 11.2005768 1.76 1.4280606
296 1 11.2005768 1.76 3.9170772
297 1 11.2005768 1.76 6.4060936
298 1 11.2005768 1.76 8.8951102
299 1 11.2005768 1.76 11.3841267
300 1 11.2005768 1.76 13.8731442
301 1 11.2005768 5.2799997 1.5919904
302 1 11.2005768 5.2799997 4.081007
303 1 11.2005768 5.2799997 6.570024
304 1 11.2005768 5.2799997 9.0590401
305 1 11.2005768 5.2799997 11.5480576
306 1 11.2005768 5.2799997 14.0370731
307 1 11.2005768 8.8000002 4.780107
308 1 11.2005768 8.8000002 7.269124
309 1 11.2005768 8.8000002 9.7581406
310 1 11.2005768 8.8000002 12.2471571
311 1 11.2005768 8.8000002 14.7361727
312 1 11.2005768 8.8000002 2.2910905
313 1 11.2005768 12.3199997 5.2515726
314 1 11.2005768 12.3199997 7.7405896
315 1 11.2005768 12.3199997 10.2296057
316 1 11.2005768 12.3199997 12.7186222
317 1 11.2005768 12.3199997 0.2735392
318 1 11.2005768 12.3199997 2.7625559
319 1 11.2005768 15.8400002 5.446661
320 1 11.2005768 15.8400002 7.9356776
321 1 11.2005768 15.8400002 10.424695
322 1 11.2005768 15.8400002 12.9137116
323 1 11.2005768 15.8400002 0.4686282
324 1 11.2005768 15.8400002 2.9576448
325 1 11.2005768 19.3600006 5.6484452
326 1 11.2005768 19.3600006 8.1374617
327 1 11.2005768 19.3600006 10.6264792
328 1 11.2005768 19.3600006 13.1154947
329 1 11.2005768 19.3600006 0.6704122
330 1 11.2005768 19.3600006 3.1594288
331 1 11.2005768 22.8799992 5.8289509
332 1 11.2005768 22.8799992 8.3179674
333 1 11.2005768 22.8799992 10.8069849
334 1 11.2005768 22.8799992 13.2960005
335 1 11.2005768 22.8799992 0.8509178
336 1 11.2005768 22.8799992 3.3399346
337 1 16.1786099 1.76 1.5857072
338 1 16.1786099 1.76 4.0747242
339 1 16.1786099 1.76 6.5637403
340 1 16.1786099 1.76 9.0527573
341 1 16.1786099 1.76 11.5417738
342 1 16.1786099 1.76 14.0307903
343 1 16.1786099 5.2799997 4.2635365
344 1 16.1786099 5.2799997 6.7525535
345 1 16.1786099 5.2799997 9.2415705
346 1 16.1786099 5.2799997 11.7305861
347 1 16.1786099 5.2799997 14.2196026
348 1 16.1786099 5.2799997 1.7745201
349 1 16.1786099 8.8000002 4.5115242
350 1 16.1786099 8.8000002 7.0005407
351 1 16.1786099 8.8000002 9.4895582
352 1 16.1786099 8.8000002 11.9785738
353 1 16.1786099 8.8000002 14.4675913
354 1 16.1786099 8.8000002 2.0225077
355 1 16.1786099 12.3199997 4.7660132
356 1 16.1786099 12.3199997 7.2550302
357 1 16.1786099 12.3199997 9.7440462
358 1 16.1786099 12.3199997 12.2330628
359 1 16.1786099 12.3199997 14.7220793
360 1 16.1786099 12.3199997 2.2769966
361 1 16.1786099 15.8400002 5.0442514
362 1 16.1786099 15.8400002 7.533268
363 1 16.1786099 15.8400002 10.0222845
364 1 16.1786099 15.8400002 12.5113011
365 1 16.1786099 15.8400002 0.0662182
366 1 16.1786099 15.8400002 2.5552349
367 1 16.1786099 19.3600006 5.5996795
368 1 16.1786099 19.3600006 8.0886955
369 1 16.1786099 19.3600006 10.577713
370 1 16.1786099 19.3600006 13.0667286
371 1 16.1786099 19.3600006 0.6216461
372 1 16.1786099 19.3600006 3.1106627
373 1 16.1786099 22.8799992 0.9742094
374 1 16.1786099 22.8799992 3.4632259
375 1 16.1786099 22.8799992 5.952243
376 1 16.1786099 22.8799992 8.4412594
377 1 16.1786099 22.8799992 10.930276
378 1 16.1786099 22.8799992 13.4192925
379 1 21.1566429 1.76 4.1898527
380 1 21.1566429 1.76 6.6788693
381 1 21.1566429 1.76 9.1678858
382 1 21.1566429 1.76 11.6569023
383 1 21.1566429 1.76 14.1459179
384 1 21.1566429 1.76 1.7008358
385 1 21.1566429 5.2799997 4.2451797
386 1 21.1566429 5.2799997 6.7341962
387 1 21.1566429 5.2799997 9.2232132
388 1 21.1566429 5.2799997 11.7122298
389 1 21.1566429 5.2799997 14.2012453
390 1 21.1566429 5.2799997 1.7561633
391 1 21.1566429 8.8000002 4.3128095
392 1 21.1566429 8.8000002 6.8018265
393 1 21.1566429 8.8000002 9.290843
394 1 21.1566429 8.8000002 11.7798596
395 1 21.1566429 8.8000002 14.2688761
396 1 21.1566429 8.8000002 1.8237928
397 1 21.1566429 12.3199997 4.358985
398 1 21.1566429 12.3199997 6.8480016
399 1 21.1566429 12.3199997 9.337018
400 1 21.1566429 12.3199997 11.8260346
401 1 21.1566429 12.3199997 14.3150511
402 1 21.1566429 12.3199997 1.8699684
403 1 21.1566429 15.8400002 4.3027458
404 1 21.1566429 15.8400002 6.7917629
405 1 21.1566429 15.8400002 9.2807789
406 1 21.1566429 15.8400002 11.7697964
407 1 21.1566429 15.8400002 14.258812
408 1 21.1566429 15.8400002 1.8137292
409 1 21.1566429 19.3600006 1.4485785
410 1 21.1566429 19.3600006 3.9375954
411 1 21.1566429 19.3600006 6.4266119
412 1 21.1566429 19.3600006 8.9156284
413 1 21.1566429 19.3600006 11.404645
414 1 21.1566429 19.3600006 13.8936616
415 1 21.1566429 22.8799992 6.2386193
416 1 21.1566429 22.8799992 8.7276354
417 1 21.1566429 22.8799992 11.2166519
418 1 21.1566429 22.8799992 13.7056694
419 1 21.1566429 22.8799992 1.2605859
420 1 21.1566429 22.8799992 3.7496026
421 1 2.4890168 0.0 2.5028081
422 1 2.4890168 0.0 4.9918246
423 1 2.4890168 0.0 7.4808407
424 1 2.4890168 0.0 9.9698582
425 1 2.4890168 0.0 12.4588747
426 1 2.4890168 0.0 0.0137914
427 1 2.4890168 3.52 2.4682381
428 1 2.4890168 3.52 4.957255
429 1 2.4890168 3.52 7.446271
430 1 2.4890168 3.52 9.9352884
431 1 2.4890168 3.52 12.424305
432 1 2.4890168 3.52 14.9133216
433 1 2.4890168 7.04 2.4020832
434 1 2.4890168 7.04 4.8910996
435 1 2.4890168 7.04 7.380116
436 1 2.4890168 7.04 9.869133
437 1 2.4890168 7.04 12.3581495
438 1 2.4890168 7.04 14.847167
439 1 2.4890168 10.5599995 14.7532664
440 1 2.4890168 10.5599995 2.3081837
441 1 2.4890168 10.5599995 4.7972002
442 1 2.4890168 10.5599995 7.2862167
443 1 2.4890168 10.5599995 9.7752333
444 1 2.4890168 10.5599995 12.2642508
445 1 2.4890168 14.0799999 14.6731167
446 1 2.4890168 14.0799999 2.2280333
447 1 2.4890168 14.0799999 4.7170496
448 1 2.4890168 14.0799999 7.2060666
449 1 2.4890168 14.0799999 9.6950836
450 1 2.4890168 14.0799999 12.1840992
451 1 2.4890168 17.6000004 4.6507931
452 1 2.4890168 17.6000004 7.1398091
453 1 2.4890168 17.6000004 9.6288262
454 1 2.4890168 17.6000004 12.1178427
455 1 2.4890168 17.6000004 14.6068592
456 1 2.4890168 17.6000004 2.1617763
457 1 2.4890168 21.1199989 4.5940471
458 1 2.4890168 21.1199989 7.0830636
459 1 2.4890168 21.1199989 9.5720806
460 1 2.4890168 21.1199989 12.0610971
461 1 2.4890168 21.1199989 14.5501137
462 1 2.4890168 21.1199989 2.1050305
463 1 7.4670496 0.0 2.5367515
464 1 7.4670496 0.0 5.0257683
465 1 7.4670496 0.0 7.5147844
466 1 7.4670496 0.0 10.0038013
467 1 7.4670496 0.0 12.4928179
468 1 7.4670496 0.0 0.0477347
469 1 7.4670496 3.52 2.5511868
470 1 7.4670496 3.52 5.0402031
471 1 7.4670496 3.52 7.5292201
472 1 7.4670496 3.52 10.0182371
473 1 7.4670496 3.52 12.5072527
474 1 7.4670496 3.52 0.0621702
475 1 7.4670496 7.04 14.8428936
476 1 7.4670496 7.04 2.3978098
477 1 7.4670496 7.04 4.8868266
478 1 7.4670496 7.04 7.3758435
479 1 7.4670496 7.04 9.8648596
480 1 7.4670496 7.04 12.3538761
481 1 7.4670496 10.5599995 14.4615221
482 1 7.4670496 10.5599995 2.0164392
483 1 7.4670496 10.5599995 4.5054555
484 1 7.4670496 10.5599995 6.9944726
485 1 7.4670496 10.5599995 9.4834891
486 1 7.4670496 10.5599995 11.9725056
487 1 7.4670496 14.0799999 4.4270268
488 1 7.4670496 14.0799999 6.9160434
489 1 7.4670496 14.0799999 9.4050598
490 1 7.4670496 14.0799999 11.8940764
491 1 7.4670496 14.0799999 14.3830929
492 1 7.4670496 14.0799999 1.93801
493 1 7.4670496 17.6000004 4.4672885
494 1 7.4670496 17.6000004 6.956305
495 1 7.4670496 17.6000004 9.4453221
496 1 7.4670496 17.6000004 11.9343376
497 1 7.4670496 17.6000004 14.4233551
498 1 7.4670496 17.6000004 1.9782716
499 1 7.4670496 21.1199989 4.5337425
500 1 7.4670496 21.1199989 7.022759
501 1 7.4670496 21.1199989 9.511776
502 1 7.4670496 21.1199989 12.0007925
503 1 7.4670496 21.1199989 14.4898091
504 1 7.4670496 21.1199989 2.0447257
505 1 12.4450836 0.0 0.1444714
506 1 12.4450836 0.0 2.633488
507 1 12.4450836 0.0 5.1225047
508 1 12.4450836 0.0 7.6115213
509 1 12.4450836 0.0 10.1005383
510 1 12.4450836 0.0 12.5895539
511 1 12.4450836 3.52 0.317057
512 1 12.4450836 3.52 2.8060737
513 1 12.4450836 3.52 5.2950902
514 1 12.4450836 3.52 7.7841072
515 1 12.4450836 3.52 10.2731228
516 1 12.4450836 3.52 12.7621403
517 1 12.4450836 7.04 3.1247428
518 1 12.4450836 7.04 5.6137595
519 1 12.4450836 7.04 8.1027756
520 1 12.4450836 7.04 10.5917931
521 1 12.4450836 7.04 13.0808096
522 1 12.4450836 7.04 0.6357261
523 1 12.4450836 10.5599995 3.6981509
524 1 12.4450836 10.5599995 6.1871672
525 1 12.4450836 10.5599995 8.6761837
526 1 12.4450836 10.5599995 11.1652002
527 1 12.4450836 10.5599995 13.6542177
528 1 12.4450836 10.5599995 1.2091341
529 1 12.4450836 14.0799999 3.993271
530 1 12.4450836 14.0799999 6.4822879
531 1 12.4450836 14.0799999 8.971304
532 1 12.4450836 14.0799999 11.4603215
533 1 12.4450836 14.0799999 13.949337
534 1 12.4450836 14.0799999 1.5042545
535 1 12.4450836 17.6000004 4.2449474
536 1 12.4450836 17.6000004 6.7339645
537 1 12.4450836 17.6000004 9.2229815
538 1 12.4450836 17.6000004 11.7119971
539 1 12.4450836 17.6000004 14.2010136
540 1 12.4450836 17.6000004 1.7559309
541 1 12.4450836 21.1199989 4.4970217
542 1 12.4450836 21.1199989 6.9860388
543 1 12.4450836 21.1199989 9.4750548
544 1 12.4450836 21.1199989 11.9640722
545 1 12.4450836 21.1199989 14.4530878
546 1 12.4450836 21.1199989 2.0080051
547 1 17.4231167 0.0 0.3054304
548 1 17.4231167 0.0 2.794447
549 1 17.4231167 0.0 5.2834635
550 1 17.4231167 0.0 7.7724805
551 1 17.4231167 0.0 10.2614975
552 1 17.4231167 0.0 12.7505131
553 1 17.4231167 3.52 2.9384152
554 1 17.4231167 3.52 5.4274316
555 1 17.4231167 3.52 7.9164482
556 1 17.4231167 3.52 10.4054651
557 1 17.4231167 3.52 12.8944818
558 1 17.4231167 3.52 0.4493985
559 1 17.4231167 7.04 3.1152809
560 1 17.4231167 7.04 5.6042972
561 1 17.4231167 7.04 8.0933142
562 1 17.4231167 7.04 10.5823307
563 1 17.4231167 7.04 13.0713472
564 1 17.4231167 7.04 0.6262644
565 1 17.4231167 10.5599995 3.3177583
566 1 17.4231167 10.5599995 5.8067751
567 1 17.4231167 10.5599995 8.2957916
568 1 17.4231167 10.5599995 10.7848082
569 1 17.4231167 10.5599995 13.2738247
570 1 17.4231167 10.5599995 0.8287418
571 1 17.4231167 14.0799999 3.511612
572 1 17.4231167 14.0799999 6.0006285
573 1 17.4231167 14.0799999 8.489645
574 1 17.4231167 14.0799999 10.9786616
575 1 17.4231167 14.0799999 13.4676781
576 1 17.4231167 14.0799999 1.0225952
577 1 17.4231167 17.6000004 3.892388
578 1 17.4231167 17.6000004 6.3814044
579 1 17.4231167 17.6000004 8.8704206
580 1 17.4231167 17.6000004 11.359438
581 1 17.4231167 17.6000004 13.8484546
582 1 17.4231167 17.6000004 1.4033712
583 1 17.4231167 21.1199989 14.6289511
584 1 17.4231167 21.1199989 2.1838679
585 1 17.4231167 21.1199989 4.6728845
586 1 17.4231167 21.1199989 7.161901
587 1 17.4231167 21.1199989 9.650918
588 1 17.4231167 21.1199989 12.1399336
589 1 22.4011498 0.0 2.9621608
590 1 22.4011498 0.0 5.4511776
591 1 22.4011498 0.0 7.9401946
592 1 22.4011498 0.0 10.4292107
593 1 22.4011498 0.0 12.9182272
594 1 22.4011498 0.0 0.4731443
595 1 22.4011498 3.52 2.973249
596 1 22.4011498 3.52 5.4622655
597 1 22.4011498 3.52 7.9512826
598 1 22.4011498 3.52 10.4402981
599 1 22.4011498 3.52 12.9293156
600 1 22.4011498 3.52 0.4842323
601 1 22.4011498 7.04 3.0068121
602 1 22.4011498 7.04 5.4958287
603 1 22.4011498 7.04 7.9848452
604 1 22.4011498 7.04 10.4738617
605 1 22.4011498 7.04 12.9628792
606 1 22.4011498 7.04 0.5177955
607 1 22.4011498 10.5599995 3.0328848
608 1 22.4011498 10.5599995 5.5219016
609 1 22.4011498 10.5599995 8.0109186
610 1 22.4011498 10.5599995 10.4999342
611 1 22.4011498 10.5599995 12.9889508
612 1 22.4011498 10.5599995 0.5438681
613 1 22.4011498 14.0799999 3.010427
614 1 22.4011498 14.0799999 5.499444
615 1 22.4011498 14.0799999 7.9884606
616 1 22.4011498 14.0799999 10.4774771
617 1 22.4011498 14.0799999 12.9664936
618 1 22.4011498 14.0799999 0.5214106
619 1 22.4011498 17.6000004 0.3535101
620 1 22.4011498 17.6000004 2.8425268
621 1 22.4011498 17.6000004 5.331543
622 1 22.4011498 17.6000004 7.82056
623 1 22.4011498 17.6000004 10.309577
624 1 22.4011498 17.6000004 12.7985926
625 1 22.4011498 21.1199989 5.0915217
626 1 22.4011498 21.1199989 7.5805383
627 1 22.4011498 21.1199989 10.0695543
628 1 22.4011498 21.1199989 12.5585709
629 1 22.4011498 21.1199989 0.1134883
630 1 22.4011498 21.1199989 2.602505
631 1 3.7335265 1.76 3.7396407
632 1 3.7335265 1.76 6.2286577
633 1 3.7335265 1.76 8.7176743
634 1 3.7335265 1.76 11.2066908
635 1 3.7335265 1.76 13.6957073
636 1 3.7335265 1.76 1.2506243
637 1 3.7335265 5.2799997 3.6823316
638 1 3.7335265 5.2799997 6.1713486
639 1 3.7335265 5.2799997 8.6603651
640 1 3.7335265 5.2799997 11.1493816
641 1 3.7335265 5.2799997 13.6383991
642 1 3.7335265 5.2799997 1.1933152
643 1 3.7335265 8.8000002 1.0732479
644 1 3.7335265 8.8000002 3.5622647
645 1 3.7335265 8.8000002 6.051281
646 1 3.7335265 8.8000002 8.5402975
647 1 3.7335265 8.8000002 11.029314
648 1 3.7335265 8.8000002 13.5183316
649 1 3.7335265 12.3199997 0.9588974
650 1 3.7335265 12.3199997 3.4479139
651 1 3.7335265 12.3199997 5.9369308
652 1 3.7335265 12.3199997 8.4259472
653 1 3.7335265 12.3199997 10.9149638
654 1 3.7335265 12.3199997 13.4039803
655 1 3.7335265 15.8400002 5.8739296
656 1 3.7335265 15.8400002 8.3629465
657 1 3.7335265 15.8400002 10.8519622
658 1 3.7335265 15.8400002 13.3409796
659 1 3.7335265 15.8400002 0.8958964
660 1 3.7335265 15.8400002 3.384913
661 1 3.7335265 19.3600006 5.8370929
662 1 3.7335265 19.3600006 8.3261089
663 1 3.7335265 19.3600006 10.8151264
664 1 3.7335265 19.3600006 13.304143
665 1 3.7335265 19.3600006 0.8590596
666 1 3.7335265 19.3600006 3.3480761
667 1 3.7335265 22.8799992 5.8152514
668 1 3.7335265 22.8799992 8.3042679
669 1 3.7335265 22.8799992 10.7932844
670 1 3.7335265 22.8799992 13.282301
671 1 3.7335265 22.8799992 0.837218
672 1 3.7335265 22.8799992 3.3262346
673 1 8.7115603 1.76 3.8326745
674 1 8.7115603 1.76 6.3216915
675 1 8.7115603 1.76 8.8107081
676 1 8.7115603 1.76 11.2997246
677 1 8.7115603 1.76 13.7887411
678 1 8.7115603 1.76 1.3436579
679 1 8.7115603 5.2799997 1.3508951
680 1 8.7115603 5.2799997 3.8399116
681 1 8.7115603 5.2799997 6.3289285
682 1 8.7115603 5.2799997 8.8179455
683 1 8.7115603 5.2799997 11.3069611
684 1 8.7115603 5.2799997 13.7959786
685 1 8.7115603 8.8000002 0.8515196
686 1 8.7115603 8.8000002 3.3405361
687 1 8.7115603 8.8000002 5.8295532
688 1 8.7115603 8.8000002 8.3185692
689 1 8.7115603 8.8000002 10.8075867
690 1 8.7115603 8.8000002 13.2966023
691 1 8.7115603 12.3199997 5.5560451
692 1 8.7115603 12.3199997 8.0450621
693 1 8.7115603 12.3199997 10.5340786
694 1 8.7115603 12.3199997 13.0230951
695 1 8.7115603 12.3199997 0.5780122
696 1 8.7115603 12.3199997 3.0670288
697 1 8.7115603 15.8400002 5.6102958
698 1 8.7115603 15.8400002 8.0993118
699 1 8.7115603 15.8400002 10.5883293
700 1 8.7115603 15.8400002 13.0773449
701 1 8.7115603 15.8400002 0.6322624
702 1 8.7115603 15.8400002 3.121279
703 1 8.7115603 19.3600006 5.7117138
704 1 8.7115603 19.3600006 8.2007303
705 1 8.7115603 19.3600006 10.6897469
706 1 8.7115603 19.3600006 13.1787643
707 1 8.7115603 19.3600006 0.7336807
708 1 8.7115603 19.3600006 3.2226973
709 1 8.7115603 22.8799992 5.8123365
710 1 8.7115603 22.8799992 8.3013535
711 1 8.7115603 22.8799992 10.7903691
712 1 8.7115603 22.8799992 13.2793865
713 1 8.7115603 22.8799992 0.8343034
714 1 8.7115603 22.8799992 3.3233199
715 1 13.6895933 1.76 1.512815
716 1 13.6895933 1.76 4.0018315
717 1 13.6895933 1.76 6.4908486
718 1 13.6895933 1.76 8.9798652
719 1 13.6895933 1.76 11.4688816
720 1 13.6895933 1.76 13.9578982
721 1 13.6895933 5.2799997 4.2245736
722 1 13.6895933 5.2799997 6.7135902
723 1 13.6895933 5.2799997 9.2026072
724 1 13.6895933 5.2799997 11.6916237
725 1 13.6895933 5.2799997 14.1806412
726 1 13.6895933 5.2799997 1.7355571
727 1 13.6895933 8.8000002 4.6149488
728 1 13.6895933 8.8000002 7.1039653
729 1 13.6895933 8.8000002 9.5929823
730 1 13.6895933 8.8000002 12.0819988
731 1 13.6895933 8.8000002 14.5710154
732 1 13.6895933 8.8000002 2.1259322
733 1 13.6895933 12.3199997 4.9859462
734 1 13.6895933 12.3199997 7.4749627
735 1 13.6895933 12.3199997 9.9639798
736 1 13.6895933 12.3199997 12.4529953
737 1 13.6895933 12.3199997 0.007913
738 1 13.6895933 12.3199997 2.4969297
739 1 13.6895933 15.8400002 5.2695985
740 1 13.6895933 15.8400002 7.7586155
741 1 13.6895933 15.8400002 10.2476311
742 1 13.6895933 15.8400002 12.7366486
743 1 13.6895933 15.8400002 0.2915651
744 1 13.6895933 15.8400002 2.7805817
745 1 13.6895933 19.3600006 5.5986161
746 1 13.6895933 19.3600006 8.0876322
747 1 13.6895933 19.3600006 10.5766497
748 1 13.6895933 19.3600006 13.0656662
749 1 13.6895933 19.3600006 0.6205831
750 1 13.6895933 19.3600006 3.1095998
751 1 13.6895933 22.8799992 5.8685542
752 1 13.6895933 22.8799992 8.3575716
753 1 13.6895933 22.8799992 10.8465882
754 1 13.6895933 22.8799992 13.3356037
755 1 13.6895933 22.8799992 0.8905212
756 1 13.6895933 22.8799992 3.3795378
757 1 18.6676255 1.76 4.1403084
758 1 18.6676255 1.76 6.6293249
759 1 18.6676255 1.76 9.1183415
760 1 18.6676255 1.76 11.607358
761 1 18.6676255 1.76 14.0963755
762 1 18.6676255 1.76 1.6512918
763 1 18.6676255 5.2799997 4.262322
764 1 18.6676255 5.2799997 6.751339
765 1 18.6676255 5.2799997 9.2403555
766 1 18.6676255 5.2799997 11.729372
767 1 18.6676255 5.2799997 14.2183895
768 1 18.6676255 5.2799997 1.7733057
769 1 18.6676255 8.8000002 4.4105106
770 1 18.6676255 8.8000002 6.8995276
771 1 18.6676255 8.8000002 9.3885441
772 1 18.6676255 8.8000002 11.8775606
773 1 18.6676255 8.8000002 14.3665781
774 1 18.6676255 8.8000002 1.9214942
775 1 18.6676255 12.3199997 4.5533524
776 1 18.6676255 12.3199997 7.0423689
777 1 18.6676255 12.3199997 9.5313854
778 1 18.6676255 12.3199997 12.020402
779 1 18.6676255 12.3199997 14.5094185
780 1 18.6676255 12.3199997 2.0643356
781 1 18.6676255 15.8400002 4.6629014
782 1 18.6676255 15.8400002 7.1519184
783 1 18.6676255 15.8400002 9.640935
784 1 18.6676255 15.8400002 12.1299515
785 1 18.6676255 15.8400002 14.618969
786 1 18.6676255 15.8400002 2.1738851
787 1 18.6676255 19.3600006 1.0557994
788 1 18.6676255 19.3600006 3.544816
789 1 18.6676255 19.3600006 6.0338326
790 1 18.6676255 19.3600006 8.5228491
791 1 18.6676255 19.3600006 11.0118656
792 1 18.6676255 19.3600006 13.5008831
793 1 18.6676255 22.8799992 1.1203984
794 1 18.6676255 22.8799992 3.6094148
795 1 18.6676255 22.8799992 6.0984316
796 1 18.6676255 22.8799992 8.5874481
797 1 18.6676255 22.8799992 11.0764647
798 1 18.6676255 22.8799992 13.5654822
799 1 23.6456585 1.76 4.2189312
800 1 23.6456585 1.76 6.7079478
801 1 23.6456585 1.76 9.1969643
802 1 23.6456585 1.76 11.6859808
803 1 23.6456585 1.76 14.1749973
804 1 23.6456585 1.76 1.7299146
805 1 23.6456585 5.2799997 4.2216592
806 1 23.6456585 5.2799997 6.7106762
807 1 23.6456585 5.2799997 9.1996927
808 1 23.6456585 5.2799997 11.6887093
809 1 23.6456585 5.2799997 14.1777248
810 1 23.6456585 5.2799997 1.7326426
811 1 23.6456585 8.8000002 4.2241054
812 1 23.6456585 8.8000002 6.7131224
813 1 23.6456585 8.8000002 9.2021389
814 1 23.6456585 8.8000002 11.6911555
815 1 23.6456585 8.8000002 14.1801729
816 1 23.6456585 8.8000002 1.735089
817 1 23.6456585 12.3199997 4.203897
818 1 23.6456585 12.3199997 6.692914
819 1 23.6456585 12.3199997 9.1819305
820 1 23.6456585 12.3199997 11.6709471
821 1 23.6456585 12.3199997 14.1599636
822 1 23.6456585 12.3199997 1.7148806
823 1 23.6456585 15.8400002 1.6284471
824 1 23.6456585 15.8400002 4.1174636
825 1 23.6456585 15.8400002 6.6064801
826 1 23.6456585 15.8400002 9.0954962
827 1 23.6456585 15.8400002 11.5845137
828 1 23.6456585 15.8400002 14.0735302
829 1 23.6456585 19.3600006 1.4541401
830 1 23.6456585 19.3600006 3.943157
831 1 23.6456585 19.3600006 6.4321733
832 1 23.6456585 19.3600006 8.9211904
833 1 23.6456585 19.3600006 11.4102059
834 1 23.6456585 19.3600006 13.8992234
835 1 23.6456585 22.8799992 6.306365
836 1 23.6456585 22.8799992 8.7953816
837 1 23.6456585 22.8799992 11.2843981
838 1 23.6456585 22.8799992 13.7734156
839 1 23.6456585 22.8799992 1.3283318
840 1 23.6456585 22.8799992 3.8173483
