# Converted from POSCAR to lammps format

3360 atoms
1 atom types

0.000000   49.780333   xlo xhi
0.000000   49.280000   ylo yhi
0.000000   14.934100   zlo zhi

  0.000000    0.000000    0.000000   xy xz yz

Atoms

   1  1      0.000000 0.000000 0.707062
   2  1      0.000000 0.000000 1.414169
   3  1      0.000000 0.000000 2.121276
   4  1      0.000000 0.000000 2.828383
   5  1      0.000000 0.000000 3.535490
   6  1      0.000000 0.000000 4.242597
   7  1      0.000000 1.000000 0.701245
   8  1      0.000000 1.000000 1.408352
   9  1      0.000000 1.000000 2.115459
  10  1      0.000000 1.000000 2.822566
  11  1      0.000000 1.000000 3.529673
  12  1      0.000000 1.000000 4.236780
  13  1      0.000000 2.000000 0.695363
  14  1      0.000000 2.000000 1.402470
  15  1      0.000000 2.000000 2.109577
  16  1      0.000000 2.000000 2.816684
  17  1      0.000000 2.000000 3.523791
  18  1      0.000000 2.000000 4.230898
  19  1      0.000000 3.000000 0.688166
  20  1      0.000000 3.000000 1.395273
  21  1      0.000000 3.000000 2.102380
  22  1      0.000000 3.000000 2.809487
  23  1      0.000000 3.000000 3.516594
  24  1      0.000000 3.000000 4.223701
  25  1      0.000000 4.000000 0.679461
  26  1      0.000000 4.000000 1.386568
  27  1      0.000000 4.000000 2.093675
  28  1      0.000000 4.000000 2.800782
  29  1      0.000000 4.000000 3.507889
  30  1      0.000000 4.000000 4.214996
  31  1      0.000000 5.000000 0.670002
  32  1      0.000000 5.000000 1.377109
  33  1      0.000000 5.000000 2.084216
  34  1      0.000000 5.000000 2.791323
  35  1      0.000000 5.000000 3.498430
  36  1      0.000000 5.000000 4.205537
  37  1      0.000000 6.000000 0.660616
  38  1      0.000000 6.000000 1.367723
  39  1      0.000000 6.000000 2.074830
  40  1      0.000000 6.000000 2.781937
  41  1      0.000000 6.000000 3.489044
  42  1      0.000000 6.000000 4.196151
  43  1      0.000000 7.000000 4.186203
  44  1      0.000000 7.000000 0.650668
  45  1      0.000000 7.000000 1.357775
  46  1      0.000000 7.000000 2.064882
  47  1      0.000000 7.000000 2.771989
  48  1      0.000000 7.000000 3.479096
  49  1      0.000000 8.000000 4.175534
  50  1      0.000000 8.000000 0.639999
  51  1      0.000000 8.000000 1.347106
  52  1      0.000000 8.000000 2.054213
  53  1      0.000000 8.000000 2.761320
  54  1      0.000000 8.000000 3.468427
  55  1      0.000000 9.000000 1.333997
  56  1      0.000000 9.000000 2.041104
  57  1      0.000000 9.000000 2.748211
  58  1      0.000000 9.000000 3.455318
  59  1      0.000000 9.000000 4.162425
  60  1      0.000000 9.000000 0.626890
  61  1      0.000000 10.000000 1.317139
  62  1      0.000000 10.000000 2.024246
  63  1      0.000000 10.000000 2.731353
  64  1      0.000000 10.000000 3.438460
  65  1      0.000000 10.000000 4.145567
  66  1      0.000000 10.000000 0.610032
  67  1      -0.000000 11.000000 1.299055
  68  1      0.000000 11.000000 2.006162
  69  1      0.000000 11.000000 2.713269
  70  1      0.000000 11.000000 3.420376
  71  1      0.000000 11.000000 4.127483
  72  1      -0.000000 11.000000 0.591948
  73  1      0.000000 12.000000 1.283305
  74  1      0.000000 12.000000 1.990412
  75  1      0.000000 12.000000 2.697519
  76  1      0.000000 12.000000 3.404626
  77  1      0.000000 12.000000 4.111733
  78  1      -0.000000 12.000000 0.576198
  79  1      -0.000000 13.000000 1.271844
  80  1      0.000000 13.000000 1.978951
  81  1      0.000000 13.000000 2.686058
  82  1      0.000000 13.000000 3.393165
  83  1      0.000000 13.000000 4.100272
  84  1      -0.000000 13.000000 0.564737
  85  1      1.414214 0.000000 0.713490
  86  1      1.414214 0.000000 1.420597
  87  1      1.414214 0.000000 2.127704
  88  1      1.414214 0.000000 2.834811
  89  1      1.414214 0.000000 3.541918
  90  1      1.414214 0.000000 0.006383
  91  1      1.414214 1.000000 0.707546
  92  1      1.414214 1.000000 1.414653
  93  1      1.414214 1.000000 2.121760
  94  1      1.414214 1.000000 2.828867
  95  1      1.414214 1.000000 3.535974
  96  1      1.414214 1.000000 0.000439
  97  1      1.414214 2.000000 0.698010
  98  1      1.414214 2.000000 1.405117
  99  1      1.414214 2.000000 2.112224
 100  1      1.414214 2.000000 2.819331
 101  1      1.414214 2.000000 3.526438
 102  1      1.414214 2.000000 4.233545
 103  1      1.414214 3.000000 0.682916
 104  1      1.414214 3.000000 1.390023
 105  1      1.414214 3.000000 2.097130
 106  1      1.414214 3.000000 2.804237
 107  1      1.414214 3.000000 3.511344
 108  1      1.414214 3.000000 4.218451
 109  1      1.414214 4.000000 0.662563
 110  1      1.414214 4.000000 1.369670
 111  1      1.414214 4.000000 2.076777
 112  1      1.414214 4.000000 2.783884
 113  1      1.414214 4.000000 3.490991
 114  1      1.414214 4.000000 4.198098
 115  1      1.414214 5.000000 0.641022
 116  1      1.414214 5.000000 1.348129
 117  1      1.414214 5.000000 2.055236
 118  1      1.414214 5.000000 2.762343
 119  1      1.414214 5.000000 3.469450
 120  1      1.414214 5.000000 4.176557
 121  1      1.414214 6.000000 4.158103
 122  1      1.414214 6.000000 0.622568
 123  1      1.414214 6.000000 1.329675
 124  1      1.414214 6.000000 2.036782
 125  1      1.414214 6.000000 2.743889
 126  1      1.414214 6.000000 3.450996
 127  1      1.414214 7.000000 4.145196
 128  1      1.414214 7.000000 0.609661
 129  1      1.414214 7.000000 1.316768
 130  1      1.414214 7.000000 2.023875
 131  1      1.414214 7.000000 2.730982
 132  1      1.414214 7.000000 3.438089
 133  1      1.414214 8.000000 1.307831
 134  1      1.414214 8.000000 2.014938
 135  1      1.414214 8.000000 2.722045
 136  1      1.414214 8.000000 3.429152
 137  1      1.414214 8.000000 4.136259
 138  1      1.414214 8.000000 0.600724
 139  1      1.414214 9.000000 1.300072
 140  1      1.414214 9.000000 2.007179
 141  1      1.414214 9.000000 2.714286
 142  1      1.414214 9.000000 3.421393
 143  1      1.414214 9.000000 4.128500
 144  1      1.414214 9.000000 0.592965
 145  1      1.414214 10.000000 1.292809
 146  1      1.414214 10.000000 1.999916
 147  1      1.414214 10.000000 2.707023
 148  1      1.414214 10.000000 3.414130
 149  1      1.414214 10.000000 4.121237
 150  1      1.414214 10.000000 0.585702
 151  1      1.414214 11.000000 1.285973
 152  1      1.414214 11.000000 1.993080
 153  1      1.414214 11.000000 2.700187
 154  1      1.414214 11.000000 3.407294
 155  1      1.414214 11.000000 4.114401
 156  1      1.414214 11.000000 0.578866
 157  1      1.414214 12.000000 1.280009
 158  1      1.414214 12.000000 1.987116
 159  1      1.414214 12.000000 2.694223
 160  1      1.414214 12.000000 3.401330
 161  1      1.414214 12.000000 4.108437
 162  1      1.414214 12.000000 0.572902
 163  1      1.414214 13.000000 1.275036
 164  1      1.414214 13.000000 1.982143
 165  1      1.414214 13.000000 2.689250
 166  1      1.414214 13.000000 3.396357
 167  1      1.414214 13.000000 4.103464
 168  1      1.414214 13.000000 0.567929
 169  1      2.828428 0.000000 0.722304
 170  1      2.828428 0.000000 1.429411
 171  1      2.828428 0.000000 2.136518
 172  1      2.828428 0.000000 2.843625
 173  1      2.828428 0.000000 3.550732
 174  1      2.828428 0.000000 0.015197
 175  1      2.828428 1.000000 0.721018
 176  1      2.828428 1.000000 1.428125
 177  1      2.828428 1.000000 2.135232
 178  1      2.828428 1.000000 2.842339
 179  1      2.828428 1.000000 3.549446
 180  1      2.828428 1.000000 0.013911
 181  1      2.828428 2.000000 0.712814
 182  1      2.828428 2.000000 1.419921
 183  1      2.828428 2.000000 2.127028
 184  1      2.828428 2.000000 2.834135
 185  1      2.828428 2.000000 3.541242
 186  1      2.828428 2.000000 0.005707
 187  1      2.828428 3.000000 0.690749
 188  1      2.828428 3.000000 1.397856
 189  1      2.828428 3.000000 2.104963
 190  1      2.828428 3.000000 2.812070
 191  1      2.828428 3.000000 3.519177
 192  1      2.828428 3.000000 4.226284
 193  1      2.828428 4.000000 0.648680
 194  1      2.828428 4.000000 1.355787
 195  1      2.828428 4.000000 2.062894
 196  1      2.828428 4.000000 2.770001
 197  1      2.828428 4.000000 3.477108
 198  1      2.828428 4.000000 4.184215
 199  1      2.828428 5.000000 4.137224
 200  1      2.828428 5.000000 0.601689
 201  1      2.828428 5.000000 1.308796
 202  1      2.828428 5.000000 2.015903
 203  1      2.828428 5.000000 2.723010
 204  1      2.828428 5.000000 3.430117
 205  1      2.828428 6.000000 1.281067
 206  1      2.828428 6.000000 1.988174
 207  1      2.828428 6.000000 2.695281
 208  1      2.828428 6.000000 3.402388
 209  1      2.828428 6.000000 4.109495
 210  1      2.828428 6.000000 0.573960
 211  1      2.828428 7.000000 1.269046
 212  1      2.828428 7.000000 1.976153
 213  1      2.828428 7.000000 2.683260
 214  1      2.828428 7.000000 3.390367
 215  1      2.828428 7.000000 4.097474
 216  1      2.828428 7.000000 0.561939
 217  1      2.828428 8.000000 1.265420
 218  1      2.828428 8.000000 1.972527
 219  1      2.828428 8.000000 2.679634
 220  1      2.828428 8.000000 3.386741
 221  1      2.828428 8.000000 4.093848
 222  1      2.828428 8.000000 0.558313
 223  1      2.828428 9.000000 1.265756
 224  1      2.828428 9.000000 1.972863
 225  1      2.828428 9.000000 2.679970
 226  1      2.828428 9.000000 3.387077
 227  1      2.828428 9.000000 4.094184
 228  1      2.828428 9.000000 0.558649
 229  1      2.828428 10.000000 1.267927
 230  1      2.828428 10.000000 1.975034
 231  1      2.828428 10.000000 2.682141
 232  1      2.828428 10.000000 3.389248
 233  1      2.828428 10.000000 4.096355
 234  1      2.828428 10.000000 0.560820
 235  1      2.828428 11.000000 1.270937
 236  1      2.828428 11.000000 1.978044
 237  1      2.828428 11.000000 2.685151
 238  1      2.828428 11.000000 3.392258
 239  1      2.828428 11.000000 4.099365
 240  1      2.828428 11.000000 0.563830
 241  1      2.828428 12.000000 1.274238
 242  1      2.828428 12.000000 1.981345
 243  1      2.828428 12.000000 2.688452
 244  1      2.828428 12.000000 3.395559
 245  1      2.828428 12.000000 4.102666
 246  1      2.828428 12.000000 0.567131
 247  1      2.828428 13.000000 1.277253
 248  1      2.828428 13.000000 1.984360
 249  1      2.828428 13.000000 2.691467
 250  1      2.828428 13.000000 3.398574
 251  1      2.828428 13.000000 4.105681
 252  1      2.828428 13.000000 0.570146
 253  1      4.242642 0.000000 0.736653
 254  1      4.242642 0.000000 1.443760
 255  1      4.242642 0.000000 2.150867
 256  1      4.242642 0.000000 2.857974
 257  1      4.242642 0.000000 3.565081
 258  1      4.242642 0.000000 0.029546
 259  1      4.242642 1.000000 0.746628
 260  1      4.242642 1.000000 1.453735
 261  1      4.242642 1.000000 2.160842
 262  1      4.242642 1.000000 2.867949
 263  1      4.242642 1.000000 3.575056
 264  1      4.242642 1.000000 0.039521
 265  1      4.242642 2.000000 0.753170
 266  1      4.242642 2.000000 1.460277
 267  1      4.242642 2.000000 2.167384
 268  1      4.242642 2.000000 2.874491
 269  1      4.242642 2.000000 3.581598
 270  1      4.242642 2.000000 0.046063
 271  1      4.242642 3.000000 0.041527
 272  1      4.242642 3.000000 0.748634
 273  1      4.242642 3.000000 1.455741
 274  1      4.242642 3.000000 2.162848
 275  1      4.242642 3.000000 2.869955
 276  1      4.242642 3.000000 3.577062
 277  1      4.242642 4.000000 4.197559
 278  1      4.242642 4.000000 0.662024
 279  1      4.242642 4.000000 1.369131
 280  1      4.242642 4.000000 2.076238
 281  1      4.242642 4.000000 2.783345
 282  1      4.242642 4.000000 3.490452
 283  1      4.242642 5.000000 1.212847
 284  1      4.242642 5.000000 1.919954
 285  1      4.242642 5.000000 2.627061
 286  1      4.242642 5.000000 3.334168
 287  1      4.242642 5.000000 4.041275
 288  1      4.242642 5.000000 0.505740
 289  1      4.242642 6.000000 1.200863
 290  1      4.242642 6.000000 1.907970
 291  1      4.242642 6.000000 2.615077
 292  1      4.242642 6.000000 3.322184
 293  1      4.242642 6.000000 4.029291
 294  1      4.242642 6.000000 0.493756
 295  1      4.242642 7.000000 1.206175
 296  1      4.242642 7.000000 1.913282
 297  1      4.242642 7.000000 2.620389
 298  1      4.242642 7.000000 3.327496
 299  1      4.242642 7.000000 4.034603
 300  1      4.242642 7.000000 0.499068
 301  1      4.242642 8.000000 1.216154
 302  1      4.242642 8.000000 1.923261
 303  1      4.242642 8.000000 2.630368
 304  1      4.242642 8.000000 3.337475
 305  1      4.242642 8.000000 4.044582
 306  1      4.242642 8.000000 0.509047
 307  1      4.242642 9.000000 1.228286
 308  1      4.242642 9.000000 1.935393
 309  1      4.242642 9.000000 2.642500
 310  1      4.242642 9.000000 3.349607
 311  1      4.242642 9.000000 4.056714
 312  1      4.242642 9.000000 0.521179
 313  1      4.242642 10.000000 1.241572
 314  1      4.242642 10.000000 1.948679
 315  1      4.242642 10.000000 2.655786
 316  1      4.242642 10.000000 3.362893
 317  1      4.242642 10.000000 4.070000
 318  1      4.242642 10.000000 0.534465
 319  1      4.242642 11.000000 1.255299
 320  1      4.242642 11.000000 1.962406
 321  1      4.242642 11.000000 2.669513
 322  1      4.242642 11.000000 3.376620
 323  1      4.242642 11.000000 4.083727
 324  1      4.242642 11.000000 0.548192
 325  1      4.242642 12.000000 1.268832
 326  1      4.242642 12.000000 1.975939
 327  1      4.242642 12.000000 2.683046
 328  1      4.242642 12.000000 3.390153
 329  1      4.242642 12.000000 4.097260
 330  1      4.242642 12.000000 0.561725
 331  1      4.242642 13.000000 1.281628
 332  1      4.242642 13.000000 1.988735
 333  1      4.242642 13.000000 2.695842
 334  1      4.242642 13.000000 3.402949
 335  1      4.242642 13.000000 4.110056
 336  1      4.242642 13.000000 0.574521
 337  1      5.656856 0.000000 0.754287
 338  1      5.656856 0.000000 1.461394
 339  1      5.656856 0.000000 2.168501
 340  1      5.656856 0.000000 2.875608
 341  1      5.656856 0.000000 3.582715
 342  1      5.656856 0.000000 0.047180
 343  1      5.656856 1.000000 0.777663
 344  1      5.656856 1.000000 1.484770
 345  1      5.656856 1.000000 2.191877
 346  1      5.656856 1.000000 2.898984
 347  1      5.656856 1.000000 3.606091
 348  1      5.656856 1.000000 0.070556
 349  1      5.656856 2.000000 0.098256
 350  1      5.656856 2.000000 0.805363
 351  1      5.656856 2.000000 1.512470
 352  1      5.656856 2.000000 2.219577
 353  1      5.656856 2.000000 2.926684
 354  1      5.656856 2.000000 3.633791
 355  1      5.656856 3.000000 0.142736
 356  1      5.656856 3.000000 0.849843
 357  1      5.656856 3.000000 1.556950
 358  1      5.656856 3.000000 2.264057
 359  1      5.656856 3.000000 2.971164
 360  1      5.656856 3.000000 3.678271
 361  1      5.656856 4.000000 0.941211
 362  1      5.656856 4.000000 1.648318
 363  1      5.656856 4.000000 2.355425
 364  1      5.656856 4.000000 3.062532
 365  1      5.656856 4.000000 3.769639
 366  1      5.656856 4.000000 0.234104
 367  1      5.656856 5.000000 1.047873
 368  1      5.656856 5.000000 1.754980
 369  1      5.656856 5.000000 2.462087
 370  1      5.656856 5.000000 3.169194
 371  1      5.656856 5.000000 3.876301
 372  1      5.656856 5.000000 0.340766
 373  1      5.656856 6.000000 1.103144
 374  1      5.656856 6.000000 1.810251
 375  1      5.656856 6.000000 2.517358
 376  1      5.656856 6.000000 3.224465
 377  1      5.656856 6.000000 3.931572
 378  1      5.656856 6.000000 0.396037
 379  1      5.656856 7.000000 1.136246
 380  1      5.656856 7.000000 1.843353
 381  1      5.656856 7.000000 2.550460
 382  1      5.656856 7.000000 3.257567
 383  1      5.656856 7.000000 3.964674
 384  1      5.656856 7.000000 0.429139
 385  1      5.656856 8.000000 1.163042
 386  1      5.656856 8.000000 1.870149
 387  1      5.656856 8.000000 2.577256
 388  1      5.656856 8.000000 3.284363
 389  1      5.656856 8.000000 3.991470
 390  1      5.656856 8.000000 0.455935
 391  1      5.656856 9.000000 1.188587
 392  1      5.656856 9.000000 1.895694
 393  1      5.656856 9.000000 2.602801
 394  1      5.656856 9.000000 3.309908
 395  1      5.656856 9.000000 4.017015
 396  1      5.656856 9.000000 0.481480
 397  1      5.656856 10.000000 1.214351
 398  1      5.656856 10.000000 1.921458
 399  1      5.656856 10.000000 2.628565
 400  1      5.656856 10.000000 3.335672
 401  1      5.656856 10.000000 4.042779
 402  1      5.656856 10.000000 0.507244
 403  1      5.656856 11.000000 1.240104
 404  1      5.656856 11.000000 1.947211
 405  1      5.656856 11.000000 2.654318
 406  1      5.656856 11.000000 3.361425
 407  1      5.656856 11.000000 4.068532
 408  1      5.656856 11.000000 0.532997
 409  1      5.656856 12.000000 1.264958
 410  1      5.656856 12.000000 1.972065
 411  1      5.656856 12.000000 2.679172
 412  1      5.656856 12.000000 3.386279
 413  1      5.656856 12.000000 4.093386
 414  1      5.656856 12.000000 0.557851
 415  1      5.656856 13.000000 1.288373
 416  1      5.656856 13.000000 1.995480
 417  1      5.656856 13.000000 2.702587
 418  1      5.656856 13.000000 3.409694
 419  1      5.656856 13.000000 4.116801
 420  1      5.656856 13.000000 0.581266
 421  1      7.071070 0.000000 0.063705
 422  1      7.071070 0.000000 0.770812
 423  1      7.071070 0.000000 1.477919
 424  1      7.071070 0.000000 2.185026
 425  1      7.071070 0.000000 2.892133
 426  1      7.071070 0.000000 3.599240
 427  1      7.071070 1.000000 0.093888
 428  1      7.071070 1.000000 0.800995
 429  1      7.071070 1.000000 1.508102
 430  1      7.071070 1.000000 2.215209
 431  1      7.071070 1.000000 2.922316
 432  1      7.071070 1.000000 3.629423
 433  1      7.071070 2.000000 0.835737
 434  1      7.071070 2.000000 1.542844
 435  1      7.071070 2.000000 2.249951
 436  1      7.071070 2.000000 2.957058
 437  1      7.071070 2.000000 3.664165
 438  1      7.071070 2.000000 0.128630
 439  1      7.071070 3.000000 0.878691
 440  1      7.071070 3.000000 1.585798
 441  1      7.071070 3.000000 2.292905
 442  1      7.071070 3.000000 3.000012
 443  1      7.071070 3.000000 3.707119
 444  1      7.071070 3.000000 0.171584
 445  1      7.071070 4.000000 0.932001
 446  1      7.071070 4.000000 1.639108
 447  1      7.071070 4.000000 2.346215
 448  1      7.071070 4.000000 3.053322
 449  1      7.071070 4.000000 3.760429
 450  1      7.071070 4.000000 0.224894
 451  1      7.071070 5.000000 0.987703
 452  1      7.071070 5.000000 1.694810
 453  1      7.071070 5.000000 2.401917
 454  1      7.071070 5.000000 3.109024
 455  1      7.071070 5.000000 3.816131
 456  1      7.071070 5.000000 0.280596
 457  1      7.071070 6.000000 1.035573
 458  1      7.071070 6.000000 1.742680
 459  1      7.071070 6.000000 2.449787
 460  1      7.071070 6.000000 3.156894
 461  1      7.071070 6.000000 3.864001
 462  1      7.071070 6.000000 0.328466
 463  1      7.071070 7.000000 1.075091
 464  1      7.071070 7.000000 1.782198
 465  1      7.071070 7.000000 2.489305
 466  1      7.071070 7.000000 3.196412
 467  1      7.071070 7.000000 3.903519
 468  1      7.071070 7.000000 0.367984
 469  1      7.071070 8.000000 1.111004
 470  1      7.071070 8.000000 1.818111
 471  1      7.071070 8.000000 2.525218
 472  1      7.071070 8.000000 3.232325
 473  1      7.071070 8.000000 3.939432
 474  1      7.071070 8.000000 0.403897
 475  1      7.071070 9.000000 1.147630
 476  1      7.071070 9.000000 1.854737
 477  1      7.071070 9.000000 2.561844
 478  1      7.071070 9.000000 3.268951
 479  1      7.071070 9.000000 3.976058
 480  1      7.071070 9.000000 0.440523
 481  1      7.071070 10.000000 1.186808
 482  1      7.071070 10.000000 1.893915
 483  1      7.071070 10.000000 2.601022
 484  1      7.071070 10.000000 3.308129
 485  1      7.071070 10.000000 4.015236
 486  1      7.071070 10.000000 0.479701
 487  1      7.071070 11.000000 1.226928
 488  1      7.071070 11.000000 1.934035
 489  1      7.071070 11.000000 2.641142
 490  1      7.071070 11.000000 3.348249
 491  1      7.071070 11.000000 4.055356
 492  1      7.071070 11.000000 0.519821
 493  1      7.071070 12.000000 1.264497
 494  1      7.071070 12.000000 1.971604
 495  1      7.071070 12.000000 2.678711
 496  1      7.071070 12.000000 3.385818
 497  1      7.071070 12.000000 4.092925
 498  1      7.071070 12.000000 0.557390
 499  1      7.071070 13.000000 1.297739
 500  1      7.071070 13.000000 2.004846
 501  1      7.071070 13.000000 2.711953
 502  1      7.071070 13.000000 3.419060
 503  1      7.071070 13.000000 4.126167
 504  1      7.071070 13.000000 0.590632
 505  1      8.485284 0.000000 0.081527
 506  1      8.485284 0.000000 0.788634
 507  1      8.485284 0.000000 1.495741
 508  1      8.485284 0.000000 2.202848
 509  1      8.485284 0.000000 2.909955
 510  1      8.485284 0.000000 3.617062
 511  1      8.485284 1.000000 0.817889
 512  1      8.485284 1.000000 1.524996
 513  1      8.485284 1.000000 2.232103
 514  1      8.485284 1.000000 2.939210
 515  1      8.485284 1.000000 3.646317
 516  1      8.485284 1.000000 0.110782
 517  1      8.485284 2.000000 0.847406
 518  1      8.485284 2.000000 1.554513
 519  1      8.485284 2.000000 2.261620
 520  1      8.485284 2.000000 2.968727
 521  1      8.485284 2.000000 3.675834
 522  1      8.485284 2.000000 0.140299
 523  1      8.485284 3.000000 0.879802
 524  1      8.485284 3.000000 1.586909
 525  1      8.485284 3.000000 2.294016
 526  1      8.485284 3.000000 3.001123
 527  1      8.485284 3.000000 3.708230
 528  1      8.485284 3.000000 0.172695
 529  1      8.485284 4.000000 0.915141
 530  1      8.485284 4.000000 1.622248
 531  1      8.485284 4.000000 2.329355
 532  1      8.485284 4.000000 3.036462
 533  1      8.485284 4.000000 3.743569
 534  1      8.485284 4.000000 0.208034
 535  1      8.485284 5.000000 0.951455
 536  1      8.485284 5.000000 1.658562
 537  1      8.485284 5.000000 2.365669
 538  1      8.485284 5.000000 3.072776
 539  1      8.485284 5.000000 3.779883
 540  1      8.485284 5.000000 0.244348
 541  1      8.485284 6.000000 0.986589
 542  1      8.485284 6.000000 1.693696
 543  1      8.485284 6.000000 2.400803
 544  1      8.485284 6.000000 3.107910
 545  1      8.485284 6.000000 3.815017
 546  1      8.485284 6.000000 0.279482
 547  1      8.485284 7.000000 1.020566
 548  1      8.485284 7.000000 1.727673
 549  1      8.485284 7.000000 2.434780
 550  1      8.485284 7.000000 3.141887
 551  1      8.485284 7.000000 3.848994
 552  1      8.485284 7.000000 0.313459
 553  1      8.485284 8.000000 1.056336
 554  1      8.485284 8.000000 1.763443
 555  1      8.485284 8.000000 2.470550
 556  1      8.485284 8.000000 3.177657
 557  1      8.485284 8.000000 3.884764
 558  1      8.485284 8.000000 0.349229
 559  1      8.485284 9.000000 1.099553
 560  1      8.485284 9.000000 1.806660
 561  1      8.485284 9.000000 2.513767
 562  1      8.485284 9.000000 3.220874
 563  1      8.485284 9.000000 3.927981
 564  1      8.485284 9.000000 0.392446
 565  1      8.485284 10.000000 1.156031
 566  1      8.485284 10.000000 1.863138
 567  1      8.485284 10.000000 2.570245
 568  1      8.485284 10.000000 3.277352
 569  1      8.485284 10.000000 3.984459
 570  1      8.485284 10.000000 0.448924
 571  1      8.485284 11.000000 1.220170
 572  1      8.485284 11.000000 1.927277
 573  1      8.485284 11.000000 2.634384
 574  1      8.485284 11.000000 3.341491
 575  1      8.485284 11.000000 4.048598
 576  1      8.485284 11.000000 0.513063
 577  1      8.485284 12.000000 1.274415
 578  1      8.485284 12.000000 1.981522
 579  1      8.485284 12.000000 2.688629
 580  1      8.485284 12.000000 3.395736
 581  1      8.485284 12.000000 4.102843
 582  1      8.485284 12.000000 0.567308
 583  1      8.485284 13.000000 4.142275
 584  1      8.485284 13.000000 0.606740
 585  1      8.485284 13.000000 1.313847
 586  1      8.485284 13.000000 2.020954
 587  1      8.485284 13.000000 2.728061
 588  1      8.485284 13.000000 3.435168
 589  1      9.899498 0.000000 0.811873
 590  1      9.899498 0.000000 1.518980
 591  1      9.899498 0.000000 2.226087
 592  1      9.899498 0.000000 2.933194
 593  1      9.899498 0.000000 3.640301
 594  1      9.899498 0.000000 0.104766
 595  1      9.899498 1.000000 0.831950
 596  1      9.899498 1.000000 1.539057
 597  1      9.899498 1.000000 2.246164
 598  1      9.899498 1.000000 2.953271
 599  1      9.899498 1.000000 3.660378
 600  1      9.899498 1.000000 0.124843
 601  1      9.899498 2.000000 0.852303
 602  1      9.899498 2.000000 1.559410
 603  1      9.899498 2.000000 2.266517
 604  1      9.899498 2.000000 2.973624
 605  1      9.899498 2.000000 3.680731
 606  1      9.899498 2.000000 0.145196
 607  1      9.899498 3.000000 0.873729
 608  1      9.899498 3.000000 1.580836
 609  1      9.899498 3.000000 2.287943
 610  1      9.899498 3.000000 2.995050
 611  1      9.899498 3.000000 3.702157
 612  1      9.899498 3.000000 0.166622
 613  1      9.899498 4.000000 0.896154
 614  1      9.899498 4.000000 1.603261
 615  1      9.899498 4.000000 2.310368
 616  1      9.899498 4.000000 3.017475
 617  1      9.899498 4.000000 3.724582
 618  1      9.899498 4.000000 0.189047
 619  1      9.899498 5.000000 0.918933
 620  1      9.899498 5.000000 1.626040
 621  1      9.899498 5.000000 2.333147
 622  1      9.899498 5.000000 3.040254
 623  1      9.899498 5.000000 3.747361
 624  1      9.899498 5.000000 0.211826
 625  1      9.899498 6.000000 0.941444
 626  1      9.899498 6.000000 1.648551
 627  1      9.899498 6.000000 2.355658
 628  1      9.899498 6.000000 3.062765
 629  1      9.899498 6.000000 3.769872
 630  1      9.899498 6.000000 0.234337
 631  1      9.899498 7.000000 0.963826
 632  1      9.899498 7.000000 1.670933
 633  1      9.899498 7.000000 2.378040
 634  1      9.899498 7.000000 3.085147
 635  1      9.899498 7.000000 3.792254
 636  1      9.899498 7.000000 0.256719
 637  1      9.899498 8.000000 0.987924
 638  1      9.899498 8.000000 1.695031
 639  1      9.899498 8.000000 2.402138
 640  1      9.899498 8.000000 3.109245
 641  1      9.899498 8.000000 3.816352
 642  1      9.899498 8.000000 0.280817
 643  1      9.899498 9.000000 1.020446
 644  1      9.899498 9.000000 1.727553
 645  1      9.899498 9.000000 2.434660
 646  1      9.899498 9.000000 3.141767
 647  1      9.899498 9.000000 3.848874
 648  1      9.899498 9.000000 0.313339
 649  1      9.899498 10.000000 1.093657
 650  1      9.899498 10.000000 1.800764
 651  1      9.899498 10.000000 2.507871
 652  1      9.899498 10.000000 3.214978
 653  1      9.899498 10.000000 3.922085
 654  1      9.899498 10.000000 0.386550
 655  1      9.899498 11.000000 1.249855
 656  1      9.899498 11.000000 1.956962
 657  1      9.899498 11.000000 2.664069
 658  1      9.899498 11.000000 3.371176
 659  1      9.899498 11.000000 4.078283
 660  1      9.899498 11.000000 0.542748
 661  1      9.899498 12.000000 4.144731
 662  1      9.899498 12.000000 0.609196
 663  1      9.899498 12.000000 1.316303
 664  1      9.899498 12.000000 2.023410
 665  1      9.899498 12.000000 2.730517
 666  1      9.899498 12.000000 3.437624
 667  1      9.899498 13.000000 1.346687
 668  1      9.899498 13.000000 2.053794
 669  1      9.899498 13.000000 2.760901
 670  1      9.899498 13.000000 3.468008
 671  1      9.899498 13.000000 4.175115
 672  1      9.899498 13.000000 0.639580
 673  1      11.313712 0.000000 0.837070
 674  1      11.313712 0.000000 1.544177
 675  1      11.313712 0.000000 2.251284
 676  1      11.313712 0.000000 2.958391
 677  1      11.313712 0.000000 3.665498
 678  1      11.313712 0.000000 0.129963
 679  1      11.313712 1.000000 0.844896
 680  1      11.313712 1.000000 1.552003
 681  1      11.313712 1.000000 2.259110
 682  1      11.313712 1.000000 2.966217
 683  1      11.313712 1.000000 3.673324
 684  1      11.313712 1.000000 0.137789
 685  1      11.313712 2.000000 0.854617
 686  1      11.313712 2.000000 1.561724
 687  1      11.313712 2.000000 2.268831
 688  1      11.313712 2.000000 2.975938
 689  1      11.313712 2.000000 3.683045
 690  1      11.313712 2.000000 0.147510
 691  1      11.313712 3.000000 0.865339
 692  1      11.313712 3.000000 1.572446
 693  1      11.313712 3.000000 2.279553
 694  1      11.313712 3.000000 2.986660
 695  1      11.313712 3.000000 3.693767
 696  1      11.313712 3.000000 0.158232
 697  1      11.313712 4.000000 0.876447
 698  1      11.313712 4.000000 1.583554
 699  1      11.313712 4.000000 2.290661
 700  1      11.313712 4.000000 2.997768
 701  1      11.313712 4.000000 3.704875
 702  1      11.313712 4.000000 0.169340
 703  1      11.313712 5.000000 0.887340
 704  1      11.313712 5.000000 1.594447
 705  1      11.313712 5.000000 2.301554
 706  1      11.313712 5.000000 3.008661
 707  1      11.313712 5.000000 3.715768
 708  1      11.313712 5.000000 0.180233
 709  1      11.313712 6.000000 0.897303
 710  1      11.313712 6.000000 1.604410
 711  1      11.313712 6.000000 2.311517
 712  1      11.313712 6.000000 3.018624
 713  1      11.313712 6.000000 3.725731
 714  1      11.313712 6.000000 0.190196
 715  1      11.313712 7.000000 0.905281
 716  1      11.313712 7.000000 1.612388
 717  1      11.313712 7.000000 2.319495
 718  1      11.313712 7.000000 3.026602
 719  1      11.313712 7.000000 3.733709
 720  1      11.313712 7.000000 0.198174
 721  1      11.313712 8.000000 0.909079
 722  1      11.313712 8.000000 1.616186
 723  1      11.313712 8.000000 2.323293
 724  1      11.313712 8.000000 3.030400
 725  1      11.313712 8.000000 3.737507
 726  1      11.313712 8.000000 0.201972
 727  1      11.313712 9.000000 0.901946
 728  1      11.313712 9.000000 1.609053
 729  1      11.313712 9.000000 2.316160
 730  1      11.313712 9.000000 3.023267
 731  1      11.313712 9.000000 3.730374
 732  1      11.313712 9.000000 0.194839
 733  1      11.313712 10.000000 0.145818
 734  1      11.313712 10.000000 0.852925
 735  1      11.313712 10.000000 1.560032
 736  1      11.313712 10.000000 2.267139
 737  1      11.313712 10.000000 2.974246